Generated DATA file using OOP: STx_prot.xyz 1 by 1 replicated

67 atoms
22 bonds
9 angles
0 dihedrals
0 impropers

7 atom types
2 bond types
1 angle types
0 dihedral types
0 improper types

0.0                  5.0120000000000005   xlo xhi
0.0                  8.833                ylo yhi
3.3645000000000005   33.3645              zlo zhi


Masses

1	1.00797 	# spc water H
2	1.00797 	# hydroxyl H
3	15.9994 	# bridging oxygen
4	15.9994 	# spc water O
5	15.9994 	# hydroxyl O
6	26.98154	# octahedral aluminum
7	28.0855 	# tetrahedral silicon

Pair Coeffs

1	0                     	0                 
2	0                     	0                 
3	0.15541641243934298   	3.1655200879296763
4	0.15541641243934298   	3.1655200879296763
5	0.15541641243934298   	3.1655200879296763
6	1.3297460139101476e-06	4.271321931583935 
7	1.8401795462816938e-06	3.301956625198346 

Bond Coeffs

1	553.935	1.0
2	553.935	1.0

Angle Coeffs

1	45.753	109.47

Atoms

1 	1 	3	-1.05	0.4710000000000001  	2.644              	4.4300000000000015  
2 	1 	5	-0.95	1.107               	7.099              	2.3640000000000008  
3 	1 	3	-1.05	0.08099999999999996 	5.4239999999999995 	4.431000000000001   
4 	1 	2	0.425	1.5619999999999998  	6.313              	2.170000000000001   
5 	1 	7	2.1  	0.32600000000000007 	2.5169999999999995 	6.068000000000001   
6 	1 	7	2.1  	0.258               	5.483              	6.069000000000001   
7 	1 	3	-1.05	0.010999999999999677	3.9919999999999995 	6.721000000000001   
8 	1 	7	2.1  	1.3039999999999998  	0.8300000000000001 	0.660000000000001   
9 	1 	7	2.1  	1.236               	3.796              	0.6610000000000005  
10	1 	7	2.1  	3.9                 	5.337              	0.660000000000001   
11	1 	3	-1.05	4.9879999999999995  	0.35499999999999954	0.21700000000000053 
12	1 	3	-1.05	1.5499999999999998  	2.3209999999999997 	0.008000000000000895
13	1 	3	-1.05	2.392               	4.8629999999999995 	0.21700000000000053 
14	1 	3	-1.05	5.0120000000000005  	4.326              	0.0                 
15	1 	3	-1.05	4.146               	6.827999999999999  	0.008000000000000895
16	1 	6	1.575	2.078               	2.404              	3.3630000000000004  
17	1 	6	1.575	4.676               	3.909              	3.3660000000000005  
18	1 	6	1.575	4.6739999999999995  	6.911              	3.3630000000000004  
19	1 	3	-1.05	1.48                	0.8889999999999993 	2.298000000000001   
20	1 	3	-1.05	2.677               	0.9159999999999995 	4.431000000000001   
21	1 	3	-1.05	1.0899999999999999  	3.6679999999999997 	2.2990000000000013  
22	1 	5	-0.95	3.703               	2.5909999999999993 	2.3640000000000008  
23	1 	5	-0.95	3.0509999999999997  	3.7219999999999995 	4.365               
24	1 	3	-1.05	4.076               	5.397              	2.298000000000001   
25	1 	3	-1.05	3.0669999999999997  	7.151999999999999  	4.4300000000000015  
26	1 	2	0.425	0.0                 	0.0                	4.559000000000001   
27	1 	2	0.425	4.1579999999999995  	1.8049999999999997 	2.170000000000001   
28	1 	2	0.425	2.596               	4.507999999999999  	4.559000000000001   
29	1 	7	2.1  	2.854               	0.976              	6.069000000000001   
30	1 	7	2.1  	2.9219999999999997  	7.0249999999999995 	6.068000000000001   
31	1 	3	-1.05	1.742               	1.987              	6.729000000000001   
32	1 	3	-1.05	4.361               	1.4499999999999993 	6.513000000000001   
33	1 	3	-1.05	4.338               	6.494999999999999  	6.729000000000001   
34	1 	3	-1.05	1.765               	5.957              	6.513000000000001   
35	1 	7	2.1  	3.832               	8.302999999999999  	0.6610000000000005  
36	1 	3	-1.05	2.416               	8.833              	0.0                 
37	1 	6	1.575	2.08                	8.417              	3.3660000000000005  
38	1 	3	-1.05	3.686               	8.176              	2.2990000000000013  
39	1 	5	-0.95	0.45500000000000007 	8.229              	4.365               
40	1 	3	-1.05	2.6069999999999998  	8.5                	6.721000000000001   
41	2 	4	-0.82	1.2700000000000014  	5.9499999999999975 	17.9745             
42	2 	1	0.41 	0.8100000000000005  	6.669999999999998  	17.4545             
43	2 	1	0.41 	1.2300000000000004  	6.149999999999998  	18.9545             
44	3 	4	-0.82	0.5899999999999999  	8.369999999999997  	22.244500000000002  
45	3 	1	0.41 	1.3900000000000006  	7.799999999999998  	22.4545             
46	3 	1	0.41 	0.10000000000000142 	7.969999999999998  	21.4745             
47	4 	4	-0.82	3.460000000000001   	7.089999999999998  	21.1345             
48	4 	1	0.41 	3.670000000000001   	7.829999999999998  	20.484499999999997  
49	4 	1	0.41 	4.140000000000001   	7.089999999999998  	21.8645             
50	5 	4	-0.82	3.710000000000001   	4.869999999999997  	17.0845             
51	5 	1	0.41 	4.21                	5.639999999999998  	17.4845             
52	5 	1	0.41 	2.7600000000000007  	4.889999999999998  	17.4045             
53	6 	4	-0.82	1.87                	4.719999999999998  	21.694499999999998  
54	6 	1	0.41 	1.9400000000000004  	3.879999999999998  	21.1445             
55	6 	1	0.41 	2.49                	5.4099999999999975 	21.3345             
56	7 	4	-0.82	3.13                	7.509999999999998  	13.5145             
57	7 	1	0.41 	3.1900000000000004  	6.579999999999998  	13.8845             
58	7 	1	0.41 	2.540000000000001   	7.509999999999998  	12.7145             
59	8 	4	-0.82	1.58                	2.3699999999999974 	20.164499999999997  
60	8 	1	0.41 	0.8800000000000008  	1.8999999999999968 	20.7045             
61	8 	1	0.41 	2.17                	1.6899999999999977 	19.7345             
62	9 	4	-0.82	3.0199999999999996  	4.7399999999999975 	14.394499999999999  
63	9 	1	0.41 	2.0300000000000002  	4.629999999999997  	14.4145             
64	9 	1	0.41 	3.3600000000000003  	4.889999999999998  	15.3245             
65	10	4	-0.82	2.0200000000000005  	1.2299999999999986 	14.074499999999999  
66	10	1	0.41 	1.790000000000001   	1.759999999999998  	13.2545             
67	10	1	0.41 	2.830000000000001   	0.6699999999999982 	13.8845             

Bonds

1 	2	2 	4 
2 	2	22	27
3 	2	23	28
4 	2	26	39
5 	1	41	42
6 	1	41	43
7 	1	44	45
8 	1	44	46
9 	1	47	48
10	1	47	49
11	1	50	51
12	1	50	52
13	1	53	54
14	1	53	55
15	1	56	57
16	1	56	58
17	1	59	60
18	1	59	61
19	1	62	63
20	1	62	64
21	1	65	66
22	1	65	67

Angles

1	1	42	41	43
2	1	45	44	46
3	1	48	47	49
4	1	51	50	52
5	1	54	53	55
6	1	57	56	58
7	1	60	59	61
8	1	63	62	64
9	1	66	65	67

