Generated DATA file using 'LAMMPS MT DATA FILE GENERATOR'
2161 atoms
480 bonds
156 angles
0 dihedrals
0 impropers

11 atom types
3 bond types
1 angle types
0 dihedral types
0 improper types

0.0                  30.072000000000003   xlo xhi
0.0                  61.831               ylo yhi
3.3645000000000005   41.0884998856        zlo zhi


Masses

1 	1.00797 	# hydroxyl H
2 	1.00797 	# spc water H
3 	15.9994 	# bridging oxygen
4 	15.9994 	# hydroxyl O
5 	15.9994 	# hydroxyl O sub.
6 	15.9994 	# oxygen oct. sub.
7 	15.9994 	# spc water O
8 	24.305  	# octahedral magnesium
9 	26.98154	# octahedral aluminum
10	28.0855 	# tetrahedral silicon
11	40.0798 	# calcium ion

Pair Coeffs

1 	0                     	0                 
2 	0                     	0                 
3 	0.15541641243934298   	3.1655200879296763
4 	0.15541641243934298   	3.1655200879296763
5 	0.15541641243934298   	3.1655200879296763
6 	0.15541641243934298   	3.1655200879296763
7 	0.15541641243934298   	3.1655200879296763
8 	9.030188046212057e-07 	5.2643258688466785
9 	1.3297460139101476e-06	4.271321931583935 
10	1.8401795462816938e-06	3.301956625198346 
11	0.09999999803260586   	2.8719902023628787

Bond Coeffs

1	553.935	1.0
2	553.935	1.0
3	553.935	1.0

Angle Coeffs

1	45.753	109.47

Atoms

1   	1  	9 	1.575  	2.078               	2.404              	3.3630000000000004  
2   	1  	9 	1.575  	2.078               	11.237             	3.3630000000000004  
3   	1  	9 	1.575  	2.078               	20.07              	3.3630000000000004  
4   	1  	9 	1.575  	2.078               	28.903000000000002 	3.3630000000000004  
5   	1  	9 	1.575  	2.078               	37.736000000000004 	3.3630000000000004  
6   	1  	9 	1.575  	2.078               	46.569             	3.3630000000000004  
7   	1  	9 	1.575  	2.078               	55.402             	3.3630000000000004  
8   	1  	9 	1.575  	2.08                	8.417              	3.3660000000000005  
9   	1  	9 	1.575  	2.08                	17.25              	3.3660000000000005  
10  	1  	9 	1.575  	2.08                	34.916000000000004 	3.3660000000000005  
11  	1  	9 	1.575  	2.08                	43.749             	3.3660000000000005  
12  	1  	9 	1.575  	2.08                	52.582             	3.3660000000000005  
13  	1  	9 	1.575  	2.08                	61.415000000000006 	3.3660000000000005  
14  	1  	9 	1.575  	4.6739999999999995  	15.744             	3.3630000000000004  
15  	1  	9 	1.575  	4.6739999999999995  	24.576999999999998 	3.3630000000000004  
16  	1  	9 	1.575  	4.6739999999999995  	33.410000000000004 	3.3630000000000004  
17  	1  	9 	1.575  	4.6739999999999995  	51.076             	3.3630000000000004  
18  	1  	9 	1.575  	4.6739999999999995  	59.909000000000006 	3.3630000000000004  
19  	1  	9 	1.575  	4.676               	3.909              	3.3660000000000005  
20  	1  	9 	1.575  	4.676               	12.742             	3.3660000000000005  
21  	1  	9 	1.575  	4.676               	21.575             	3.3660000000000005  
22  	1  	9 	1.575  	4.676               	39.241             	3.3660000000000005  
23  	1  	9 	1.575  	4.676               	48.074             	3.3660000000000005  
24  	1  	9 	1.575  	4.676               	56.907000000000004 	3.3660000000000005  
25  	1  	9 	1.575  	7.09                	2.404              	3.3630000000000004  
26  	1  	9 	1.575  	7.09                	11.237             	3.3630000000000004  
27  	1  	9 	1.575  	7.09                	28.903000000000002 	3.3630000000000004  
28  	1  	9 	1.575  	7.09                	46.569             	3.3630000000000004  
29  	1  	9 	1.575  	7.0920000000000005  	8.417              	3.3660000000000005  
30  	1  	9 	1.575  	7.0920000000000005  	17.25              	3.3660000000000005  
31  	1  	9 	1.575  	7.0920000000000005  	26.083             	3.3660000000000005  
32  	1  	9 	1.575  	7.0920000000000005  	34.916000000000004 	3.3660000000000005  
33  	1  	9 	1.575  	7.0920000000000005  	43.749             	3.3660000000000005  
34  	1  	9 	1.575  	7.0920000000000005  	52.582             	3.3660000000000005  
35  	1  	9 	1.575  	7.0920000000000005  	61.415000000000006 	3.3660000000000005  
36  	1  	9 	1.575  	9.686               	15.744             	3.3630000000000004  
37  	1  	9 	1.575  	9.686               	42.243             	3.3630000000000004  
38  	1  	9 	1.575  	9.686               	51.076             	3.3630000000000004  
39  	1  	9 	1.575  	9.686               	59.909000000000006 	3.3630000000000004  
40  	1  	9 	1.575  	9.688               	3.909              	3.3660000000000005  
41  	1  	9 	1.575  	9.688               	21.575             	3.3660000000000005  
42  	1  	9 	1.575  	9.688               	30.408             	3.3660000000000005  
43  	1  	9 	1.575  	9.688               	39.241             	3.3660000000000005  
44  	1  	9 	1.575  	9.688               	56.907000000000004 	3.3660000000000005  
45  	1  	9 	1.575  	12.102              	2.404              	3.3630000000000004  
46  	1  	9 	1.575  	12.102              	11.237             	3.3630000000000004  
47  	1  	9 	1.575  	12.102              	28.903000000000002 	3.3630000000000004  
48  	1  	9 	1.575  	12.102              	37.736000000000004 	3.3630000000000004  
49  	1  	9 	1.575  	12.102              	46.569             	3.3630000000000004  
50  	1  	9 	1.575  	12.102              	55.402             	3.3630000000000004  
51  	1  	9 	1.575  	12.104000000000001  	8.417              	3.3660000000000005  
52  	1  	9 	1.575  	12.104000000000001  	17.25              	3.3660000000000005  
53  	1  	9 	1.575  	12.104000000000001  	26.083             	3.3660000000000005  
54  	1  	9 	1.575  	12.104000000000001  	34.916000000000004 	3.3660000000000005  
55  	1  	9 	1.575  	12.104000000000001  	43.749             	3.3660000000000005  
56  	1  	9 	1.575  	12.104000000000001  	52.582             	3.3660000000000005  
57  	1  	9 	1.575  	12.104000000000001  	61.415000000000006 	3.3660000000000005  
58  	1  	9 	1.575  	14.698              	6.911              	3.3630000000000004  
59  	1  	9 	1.575  	14.698              	15.744             	3.3630000000000004  
60  	1  	9 	1.575  	14.698              	24.576999999999998 	3.3630000000000004  
61  	1  	9 	1.575  	14.698              	33.410000000000004 	3.3630000000000004  
62  	1  	9 	1.575  	14.698              	59.909000000000006 	3.3630000000000004  
63  	1  	9 	1.575  	14.700000000000001  	3.909              	3.3660000000000005  
64  	1  	9 	1.575  	14.700000000000001  	12.742             	3.3660000000000005  
65  	1  	9 	1.575  	14.700000000000001  	21.575             	3.3660000000000005  
66  	1  	9 	1.575  	14.700000000000001  	30.408             	3.3660000000000005  
67  	1  	9 	1.575  	14.700000000000001  	39.241             	3.3660000000000005  
68  	1  	9 	1.575  	14.700000000000001  	48.074             	3.3660000000000005  
69  	1  	9 	1.575  	14.700000000000001  	56.907000000000004 	3.3660000000000005  
70  	1  	9 	1.575  	17.114              	2.404              	3.3630000000000004  
71  	1  	9 	1.575  	17.114              	11.237             	3.3630000000000004  
72  	1  	9 	1.575  	17.114              	20.07              	3.3630000000000004  
73  	1  	9 	1.575  	17.114              	28.903000000000002 	3.3630000000000004  
74  	1  	9 	1.575  	17.114              	37.736000000000004 	3.3630000000000004  
75  	1  	9 	1.575  	17.114              	46.569             	3.3630000000000004  
76  	1  	9 	1.575  	17.114              	55.402             	3.3630000000000004  
77  	1  	9 	1.575  	17.116              	8.417              	3.3660000000000005  
78  	1  	9 	1.575  	17.116              	17.25              	3.3660000000000005  
79  	1  	9 	1.575  	17.116              	26.083             	3.3660000000000005  
80  	1  	9 	1.575  	17.116              	43.749             	3.3660000000000005  
81  	1  	9 	1.575  	17.116              	52.582             	3.3660000000000005  
82  	1  	9 	1.575  	17.116              	61.415000000000006 	3.3660000000000005  
83  	1  	9 	1.575  	19.71               	6.911              	3.3630000000000004  
84  	1  	9 	1.575  	19.71               	15.744             	3.3630000000000004  
85  	1  	9 	1.575  	19.71               	24.576999999999998 	3.3630000000000004  
86  	1  	9 	1.575  	19.71               	33.410000000000004 	3.3630000000000004  
87  	1  	9 	1.575  	19.71               	42.243             	3.3630000000000004  
88  	1  	9 	1.575  	19.71               	51.076             	3.3630000000000004  
89  	1  	9 	1.575  	19.71               	59.909000000000006 	3.3630000000000004  
90  	1  	9 	1.575  	19.712000000000003  	3.909              	3.3660000000000005  
91  	1  	9 	1.575  	19.712000000000003  	12.742             	3.3660000000000005  
92  	1  	9 	1.575  	19.712000000000003  	21.575             	3.3660000000000005  
93  	1  	9 	1.575  	19.712000000000003  	30.408             	3.3660000000000005  
94  	1  	9 	1.575  	19.712000000000003  	56.907000000000004 	3.3660000000000005  
95  	1  	9 	1.575  	22.126              	2.404              	3.3630000000000004  
96  	1  	9 	1.575  	22.126              	11.237             	3.3630000000000004  
97  	1  	9 	1.575  	22.126              	20.07              	3.3630000000000004  
98  	1  	9 	1.575  	22.126              	28.903000000000002 	3.3630000000000004  
99  	1  	9 	1.575  	22.126              	37.736000000000004 	3.3630000000000004  
100 	1  	9 	1.575  	22.126              	46.569             	3.3630000000000004  
101 	1  	9 	1.575  	22.128              	8.417              	3.3660000000000005  
102 	1  	9 	1.575  	22.128              	17.25              	3.3660000000000005  
103 	1  	9 	1.575  	22.128              	26.083             	3.3660000000000005  
104 	1  	9 	1.575  	22.128              	34.916000000000004 	3.3660000000000005  
105 	1  	9 	1.575  	22.128              	43.749             	3.3660000000000005  
106 	1  	9 	1.575  	22.128              	52.582             	3.3660000000000005  
107 	1  	9 	1.575  	22.128              	61.415000000000006 	3.3660000000000005  
108 	1  	9 	1.575  	24.722              	6.911              	3.3630000000000004  
109 	1  	9 	1.575  	24.722              	15.744             	3.3630000000000004  
110 	1  	9 	1.575  	24.722              	24.576999999999998 	3.3630000000000004  
111 	1  	9 	1.575  	24.722              	33.410000000000004 	3.3630000000000004  
112 	1  	9 	1.575  	24.722              	42.243             	3.3630000000000004  
113 	1  	9 	1.575  	24.722              	59.909000000000006 	3.3630000000000004  
114 	1  	9 	1.575  	24.724000000000004  	21.575             	3.3660000000000005  
115 	1  	9 	1.575  	24.724000000000004  	30.408             	3.3660000000000005  
116 	1  	9 	1.575  	24.724000000000004  	39.241             	3.3660000000000005  
117 	1  	9 	1.575  	24.724000000000004  	48.074             	3.3660000000000005  
118 	1  	9 	1.575  	24.724000000000004  	56.907000000000004 	3.3660000000000005  
119 	1  	9 	1.575  	27.138              	2.404              	3.3630000000000004  
120 	1  	9 	1.575  	27.138              	11.237             	3.3630000000000004  
121 	1  	9 	1.575  	27.138              	20.07              	3.3630000000000004  
122 	1  	9 	1.575  	27.138              	28.903000000000002 	3.3630000000000004  
123 	1  	9 	1.575  	27.138              	37.736000000000004 	3.3630000000000004  
124 	1  	9 	1.575  	27.138              	46.569             	3.3630000000000004  
125 	1  	9 	1.575  	27.138              	55.402             	3.3630000000000004  
126 	1  	9 	1.575  	27.14               	8.417              	3.3660000000000005  
127 	1  	9 	1.575  	27.14               	17.25              	3.3660000000000005  
128 	1  	9 	1.575  	27.14               	26.083             	3.3660000000000005  
129 	1  	9 	1.575  	27.14               	34.916000000000004 	3.3660000000000005  
130 	1  	9 	1.575  	27.14               	43.749             	3.3660000000000005  
131 	1  	9 	1.575  	27.14               	52.582             	3.3660000000000005  
132 	1  	9 	1.575  	27.14               	61.415000000000006 	3.3660000000000005  
133 	1  	9 	1.575  	29.734              	6.911              	3.3630000000000004  
134 	1  	9 	1.575  	29.734              	24.576999999999998 	3.3630000000000004  
135 	1  	9 	1.575  	29.734              	33.410000000000004 	3.3630000000000004  
136 	1  	9 	1.575  	29.734              	59.909000000000006 	3.3630000000000004  
137 	1  	9 	1.575  	29.736000000000004  	12.742             	3.3660000000000005  
138 	1  	9 	1.575  	29.736000000000004  	30.408             	3.3660000000000005  
139 	1  	9 	1.575  	29.736000000000004  	39.241             	3.3660000000000005  
140 	1  	9 	1.575  	29.736000000000004  	48.074             	3.3660000000000005  
141 	1  	9 	1.575  	29.736000000000004  	56.907000000000004 	3.3660000000000005  
142 	1  	1 	0.425  	0.0                 	0.0                	4.559000000000001   
143 	1  	1 	0.425  	0.0                 	8.833              	4.559000000000001   
144 	1  	1 	0.425  	0.0                 	17.666             	4.559000000000001   
145 	1  	1 	0.425  	0.0                 	26.499000000000002 	4.559000000000001   
146 	1  	1 	0.425  	0.0                 	35.332             	4.559000000000001   
147 	1  	1 	0.425  	0.0                 	44.165             	4.559000000000001   
148 	1  	1 	0.425  	0.0                 	52.998000000000005 	4.559000000000001   
149 	1  	1 	0.425  	1.5619999999999998  	6.313              	2.170000000000001   
150 	1  	1 	0.425  	1.5619999999999998  	15.146             	2.170000000000001   
151 	1  	1 	0.425  	1.5619999999999998  	23.979             	2.170000000000001   
152 	1  	1 	0.425  	1.5619999999999998  	32.812000000000005 	2.170000000000001   
153 	1  	1 	0.425  	1.5619999999999998  	41.645             	2.170000000000001   
154 	1  	1 	0.425  	1.5619999999999998  	50.478             	2.170000000000001   
155 	1  	1 	0.425  	1.5619999999999998  	59.31100000000001  	2.170000000000001   
156 	1  	1 	0.425  	2.596               	4.507999999999999  	4.559000000000001   
157 	1  	1 	0.425  	2.596               	13.341             	4.559000000000001   
158 	1  	1 	0.425  	2.596               	22.174             	4.559000000000001   
159 	1  	1 	0.425  	2.596               	31.007             	4.559000000000001   
160 	1  	1 	0.425  	2.596               	39.84              	4.559000000000001   
161 	1  	1 	0.425  	2.596               	48.673             	4.559000000000001   
162 	1  	1 	0.425  	2.596               	57.506             	4.559000000000001   
163 	1  	1 	0.425  	4.1579999999999995  	1.8049999999999997 	2.170000000000001   
164 	1  	1 	0.425  	4.1579999999999995  	10.638             	2.170000000000001   
165 	1  	1 	0.425  	4.1579999999999995  	19.471             	2.170000000000001   
166 	1  	1 	0.425  	4.1579999999999995  	28.304000000000002 	2.170000000000001   
167 	1  	1 	0.425  	4.1579999999999995  	37.137             	2.170000000000001   
168 	1  	1 	0.425  	4.1579999999999995  	45.97              	2.170000000000001   
169 	1  	1 	0.425  	4.1579999999999995  	54.803000000000004 	2.170000000000001   
170 	1  	1 	0.425  	5.0120000000000005  	0.0                	4.559000000000001   
171 	1  	1 	0.425  	5.0120000000000005  	8.833              	4.559000000000001   
172 	1  	1 	0.425  	5.0120000000000005  	17.666             	4.559000000000001   
173 	1  	1 	0.425  	5.0120000000000005  	26.499000000000002 	4.559000000000001   
174 	1  	1 	0.425  	5.0120000000000005  	35.332             	4.559000000000001   
175 	1  	1 	0.425  	5.0120000000000005  	44.165             	4.559000000000001   
176 	1  	1 	0.425  	5.0120000000000005  	52.998000000000005 	4.559000000000001   
177 	1  	1 	0.425  	6.574               	6.313              	2.170000000000001   
178 	1  	1 	0.425  	6.574               	15.146             	2.170000000000001   
179 	1  	1 	0.425  	6.574               	23.979             	2.170000000000001   
180 	1  	1 	0.425  	6.574               	32.812000000000005 	2.170000000000001   
181 	1  	1 	0.425  	6.574               	41.645             	2.170000000000001   
182 	1  	1 	0.425  	6.574               	50.478             	2.170000000000001   
183 	1  	1 	0.425  	6.574               	59.31100000000001  	2.170000000000001   
184 	1  	1 	0.425  	7.6080000000000005  	4.507999999999999  	4.559000000000001   
185 	1  	1 	0.425  	7.6080000000000005  	13.341             	4.559000000000001   
186 	1  	1 	0.425  	7.6080000000000005  	22.174             	4.559000000000001   
187 	1  	1 	0.425  	7.6080000000000005  	31.007             	4.559000000000001   
188 	1  	1 	0.425  	7.6080000000000005  	39.84              	4.559000000000001   
189 	1  	1 	0.425  	7.6080000000000005  	48.673             	4.559000000000001   
190 	1  	1 	0.425  	7.6080000000000005  	57.506             	4.559000000000001   
191 	1  	1 	0.425  	9.17                	1.8049999999999997 	2.170000000000001   
192 	1  	1 	0.425  	9.17                	10.638             	2.170000000000001   
193 	1  	1 	0.425  	9.17                	19.471             	2.170000000000001   
194 	1  	1 	0.425  	9.17                	28.304000000000002 	2.170000000000001   
195 	1  	1 	0.425  	9.17                	37.137             	2.170000000000001   
196 	1  	1 	0.425  	9.17                	45.97              	2.170000000000001   
197 	1  	1 	0.425  	9.17                	54.803000000000004 	2.170000000000001   
198 	1  	1 	0.425  	10.024000000000001  	0.0                	4.559000000000001   
199 	1  	1 	0.425  	10.024000000000001  	8.833              	4.559000000000001   
200 	1  	1 	0.425  	10.024000000000001  	17.666             	4.559000000000001   
201 	1  	1 	0.425  	10.024000000000001  	26.499000000000002 	4.559000000000001   
202 	1  	1 	0.425  	10.024000000000001  	35.332             	4.559000000000001   
203 	1  	1 	0.425  	10.024000000000001  	44.165             	4.559000000000001   
204 	1  	1 	0.425  	10.024000000000001  	52.998000000000005 	4.559000000000001   
205 	1  	1 	0.425  	11.586              	6.313              	2.170000000000001   
206 	1  	1 	0.425  	11.586              	15.146             	2.170000000000001   
207 	1  	1 	0.425  	11.586              	23.979             	2.170000000000001   
208 	1  	1 	0.425  	11.586              	32.812000000000005 	2.170000000000001   
209 	1  	1 	0.425  	11.586              	41.645             	2.170000000000001   
210 	1  	1 	0.425  	11.586              	50.478             	2.170000000000001   
211 	1  	1 	0.425  	11.586              	59.31100000000001  	2.170000000000001   
212 	1  	1 	0.425  	12.620000000000001  	4.507999999999999  	4.559000000000001   
213 	1  	1 	0.425  	12.620000000000001  	13.341             	4.559000000000001   
214 	1  	1 	0.425  	12.620000000000001  	22.174             	4.559000000000001   
215 	1  	1 	0.425  	12.620000000000001  	31.007             	4.559000000000001   
216 	1  	1 	0.425  	12.620000000000001  	39.84              	4.559000000000001   
217 	1  	1 	0.425  	12.620000000000001  	48.673             	4.559000000000001   
218 	1  	1 	0.425  	12.620000000000001  	57.506             	4.559000000000001   
219 	1  	1 	0.425  	14.182              	1.8049999999999997 	2.170000000000001   
220 	1  	1 	0.425  	14.182              	10.638             	2.170000000000001   
221 	1  	1 	0.425  	14.182              	19.471             	2.170000000000001   
222 	1  	1 	0.425  	14.182              	28.304000000000002 	2.170000000000001   
223 	1  	1 	0.425  	14.182              	37.137             	2.170000000000001   
224 	1  	1 	0.425  	14.182              	45.97              	2.170000000000001   
225 	1  	1 	0.425  	14.182              	54.803000000000004 	2.170000000000001   
226 	1  	1 	0.425  	15.036000000000001  	0.0                	4.559000000000001   
227 	1  	1 	0.425  	15.036000000000001  	8.833              	4.559000000000001   
228 	1  	1 	0.425  	15.036000000000001  	17.666             	4.559000000000001   
229 	1  	1 	0.425  	15.036000000000001  	26.499000000000002 	4.559000000000001   
230 	1  	1 	0.425  	15.036000000000001  	35.332             	4.559000000000001   
231 	1  	1 	0.425  	15.036000000000001  	44.165             	4.559000000000001   
232 	1  	1 	0.425  	15.036000000000001  	52.998000000000005 	4.559000000000001   
233 	1  	1 	0.425  	16.598000000000003  	6.313              	2.170000000000001   
234 	1  	1 	0.425  	16.598000000000003  	15.146             	2.170000000000001   
235 	1  	1 	0.425  	16.598000000000003  	23.979             	2.170000000000001   
236 	1  	1 	0.425  	16.598000000000003  	32.812000000000005 	2.170000000000001   
237 	1  	1 	0.425  	16.598000000000003  	41.645             	2.170000000000001   
238 	1  	1 	0.425  	16.598000000000003  	50.478             	2.170000000000001   
239 	1  	1 	0.425  	16.598000000000003  	59.31100000000001  	2.170000000000001   
240 	1  	1 	0.425  	17.632              	4.507999999999999  	4.559000000000001   
241 	1  	1 	0.425  	17.632              	13.341             	4.559000000000001   
242 	1  	1 	0.425  	17.632              	22.174             	4.559000000000001   
243 	1  	1 	0.425  	17.632              	31.007             	4.559000000000001   
244 	1  	1 	0.425  	17.632              	39.84              	4.559000000000001   
245 	1  	1 	0.425  	17.632              	48.673             	4.559000000000001   
246 	1  	1 	0.425  	17.632              	57.506             	4.559000000000001   
247 	1  	1 	0.425  	19.194000000000003  	1.8049999999999997 	2.170000000000001   
248 	1  	1 	0.425  	19.194000000000003  	10.638             	2.170000000000001   
249 	1  	1 	0.425  	19.194000000000003  	19.471             	2.170000000000001   
250 	1  	1 	0.425  	19.194000000000003  	28.304000000000002 	2.170000000000001   
251 	1  	1 	0.425  	19.194000000000003  	37.137             	2.170000000000001   
252 	1  	1 	0.425  	19.194000000000003  	45.97              	2.170000000000001   
253 	1  	1 	0.425  	19.194000000000003  	54.803000000000004 	2.170000000000001   
254 	1  	1 	0.425  	20.048000000000002  	0.0                	4.559000000000001   
255 	1  	1 	0.425  	20.048000000000002  	8.833              	4.559000000000001   
256 	1  	1 	0.425  	20.048000000000002  	17.666             	4.559000000000001   
257 	1  	1 	0.425  	20.048000000000002  	26.499000000000002 	4.559000000000001   
258 	1  	1 	0.425  	20.048000000000002  	35.332             	4.559000000000001   
259 	1  	1 	0.425  	20.048000000000002  	44.165             	4.559000000000001   
260 	1  	1 	0.425  	20.048000000000002  	52.998000000000005 	4.559000000000001   
261 	1  	1 	0.425  	21.610000000000003  	6.313              	2.170000000000001   
262 	1  	1 	0.425  	21.610000000000003  	15.146             	2.170000000000001   
263 	1  	1 	0.425  	21.610000000000003  	23.979             	2.170000000000001   
264 	1  	1 	0.425  	21.610000000000003  	32.812000000000005 	2.170000000000001   
265 	1  	1 	0.425  	21.610000000000003  	41.645             	2.170000000000001   
266 	1  	1 	0.425  	21.610000000000003  	50.478             	2.170000000000001   
267 	1  	1 	0.425  	21.610000000000003  	59.31100000000001  	2.170000000000001   
268 	1  	1 	0.425  	22.644000000000002  	4.507999999999999  	4.559000000000001   
269 	1  	1 	0.425  	22.644000000000002  	13.341             	4.559000000000001   
270 	1  	1 	0.425  	22.644000000000002  	22.174             	4.559000000000001   
271 	1  	1 	0.425  	22.644000000000002  	31.007             	4.559000000000001   
272 	1  	1 	0.425  	22.644000000000002  	39.84              	4.559000000000001   
273 	1  	1 	0.425  	22.644000000000002  	48.673             	4.559000000000001   
274 	1  	1 	0.425  	22.644000000000002  	57.506             	4.559000000000001   
275 	1  	1 	0.425  	24.206000000000003  	1.8049999999999997 	2.170000000000001   
276 	1  	1 	0.425  	24.206000000000003  	10.638             	2.170000000000001   
277 	1  	1 	0.425  	24.206000000000003  	19.471             	2.170000000000001   
278 	1  	1 	0.425  	24.206000000000003  	28.304000000000002 	2.170000000000001   
279 	1  	1 	0.425  	24.206000000000003  	37.137             	2.170000000000001   
280 	1  	1 	0.425  	24.206000000000003  	45.97              	2.170000000000001   
281 	1  	1 	0.425  	24.206000000000003  	54.803000000000004 	2.170000000000001   
282 	1  	1 	0.425  	25.060000000000002  	0.0                	4.559000000000001   
283 	1  	1 	0.425  	25.060000000000002  	8.833              	4.559000000000001   
284 	1  	1 	0.425  	25.060000000000002  	17.666             	4.559000000000001   
285 	1  	1 	0.425  	25.060000000000002  	26.499000000000002 	4.559000000000001   
286 	1  	1 	0.425  	25.060000000000002  	35.332             	4.559000000000001   
287 	1  	1 	0.425  	25.060000000000002  	44.165             	4.559000000000001   
288 	1  	1 	0.425  	25.060000000000002  	52.998000000000005 	4.559000000000001   
289 	1  	1 	0.425  	26.622000000000003  	6.313              	2.170000000000001   
290 	1  	1 	0.425  	26.622000000000003  	15.146             	2.170000000000001   
291 	1  	1 	0.425  	26.622000000000003  	23.979             	2.170000000000001   
292 	1  	1 	0.425  	26.622000000000003  	32.812000000000005 	2.170000000000001   
293 	1  	1 	0.425  	26.622000000000003  	41.645             	2.170000000000001   
294 	1  	1 	0.425  	26.622000000000003  	50.478             	2.170000000000001   
295 	1  	1 	0.425  	26.622000000000003  	59.31100000000001  	2.170000000000001   
296 	1  	1 	0.425  	27.656000000000002  	4.507999999999999  	4.559000000000001   
297 	1  	1 	0.425  	27.656000000000002  	13.341             	4.559000000000001   
298 	1  	1 	0.425  	27.656000000000002  	22.174             	4.559000000000001   
299 	1  	1 	0.425  	27.656000000000002  	31.007             	4.559000000000001   
300 	1  	1 	0.425  	27.656000000000002  	39.84              	4.559000000000001   
301 	1  	1 	0.425  	27.656000000000002  	48.673             	4.559000000000001   
302 	1  	1 	0.425  	27.656000000000002  	57.506             	4.559000000000001   
303 	1  	1 	0.425  	29.218000000000004  	1.8049999999999997 	2.170000000000001   
304 	1  	1 	0.425  	29.218000000000004  	10.638             	2.170000000000001   
305 	1  	1 	0.425  	29.218000000000004  	19.471             	2.170000000000001   
306 	1  	1 	0.425  	29.218000000000004  	28.304000000000002 	2.170000000000001   
307 	1  	1 	0.425  	29.218000000000004  	37.137             	2.170000000000001   
308 	1  	1 	0.425  	29.218000000000004  	45.97              	2.170000000000001   
309 	1  	1 	0.425  	29.218000000000004  	54.803000000000004 	2.170000000000001   
310 	1  	8 	1.36   	2.08                	26.083             	3.3660000000000005  
311 	1  	8 	1.36   	4.6739999999999995  	6.911              	3.3630000000000004  
312 	1  	8 	1.36   	4.6739999999999995  	42.243             	3.3630000000000004  
313 	1  	8 	1.36   	4.676               	30.408             	3.3660000000000005  
314 	1  	8 	1.36   	7.09                	20.07              	3.3630000000000004  
315 	1  	8 	1.36   	7.09                	37.736000000000004 	3.3630000000000004  
316 	1  	8 	1.36   	7.09                	55.402             	3.3630000000000004  
317 	1  	8 	1.36   	9.686               	6.911              	3.3630000000000004  
318 	1  	8 	1.36   	9.686               	24.576999999999998 	3.3630000000000004  
319 	1  	8 	1.36   	9.686               	33.410000000000004 	3.3630000000000004  
320 	1  	8 	1.36   	9.688               	12.742             	3.3660000000000005  
321 	1  	8 	1.36   	9.688               	48.074             	3.3660000000000005  
322 	1  	8 	1.36   	12.102              	20.07              	3.3630000000000004  
323 	1  	8 	1.36   	14.698              	42.243             	3.3630000000000004  
324 	1  	8 	1.36   	14.698              	51.076             	3.3630000000000004  
325 	1  	8 	1.36   	17.116              	34.916000000000004 	3.3660000000000005  
326 	1  	8 	1.36   	19.712000000000003  	39.241             	3.3660000000000005  
327 	1  	8 	1.36   	19.712000000000003  	48.074             	3.3660000000000005  
328 	1  	8 	1.36   	22.126              	55.402             	3.3630000000000004  
329 	1  	8 	1.36   	24.722              	51.076             	3.3630000000000004  
330 	1  	8 	1.36   	24.724000000000004  	3.909              	3.3660000000000005  
331 	1  	8 	1.36   	24.724000000000004  	12.742             	3.3660000000000005  
332 	1  	8 	1.36   	29.734              	15.744             	3.3630000000000004  
333 	1  	8 	1.36   	29.734              	42.243             	3.3630000000000004  
334 	1  	8 	1.36   	29.734              	51.076             	3.3630000000000004  
335 	1  	8 	1.36   	29.736000000000004  	3.909              	3.3660000000000005  
336 	1  	8 	1.36   	29.736000000000004  	21.575             	3.3660000000000005  
337 	1  	3 	-1.05  	0.010999999999999677	3.9919999999999995 	6.721000000000001   
338 	1  	3 	-1.05  	0.010999999999999677	12.825             	6.721000000000001   
339 	1  	3 	-1.05  	0.010999999999999677	21.658             	6.721000000000001   
340 	1  	3 	-1.05  	0.010999999999999677	30.491000000000003 	6.721000000000001   
341 	1  	3 	-1.05  	0.010999999999999677	39.324             	6.721000000000001   
342 	1  	3 	-1.05  	0.010999999999999677	48.157             	6.721000000000001   
343 	1  	3 	-1.05  	0.010999999999999677	56.99              	6.721000000000001   
344 	1  	6 	-1.1808	0.08099999999999996 	5.4239999999999995 	4.431000000000001   
345 	1  	6 	-1.1808	0.08099999999999996 	14.257             	4.431000000000001   
346 	1  	6 	-1.1808	0.08099999999999996 	23.09              	4.431000000000001   
347 	1  	3 	-1.05  	0.08099999999999996 	31.923000000000002 	4.431000000000001   
348 	1  	6 	-1.1808	0.08099999999999996 	40.756             	4.431000000000001   
349 	1  	6 	-1.1808	0.08099999999999996 	49.589             	4.431000000000001   
350 	1  	3 	-1.05  	0.08099999999999996 	58.422000000000004 	4.431000000000001   