Generated DATA file using OOP: STx_prot.xyz 2 by 2 replicated

300 atoms
108 bonds
46 angles
0 dihedrals
0 impropers

11 atom types
3 bond types
1 angle types
0 dihedral types
0 improper types

0.0                  10.024000000000001   xlo xhi
0.0                  17.666               ylo yhi
3.3645000000000005   33.3645              zlo zhi


Masses

1 	1.00797 	# hydroxyl H
2 	1.00797 	# spc water H
3 	15.9994 	# hydroxyl O
4 	15.9994 	# spc water O
5 	15.9994 	# hydroxyl O sub.
6 	15.9994 	# oxygen oct. sub.
7 	15.9994 	# bridging oxygen
8 	24.305  	# octahedral magnesium
9 	26.98154	# octahedral aluminum
10	28.0855 	# tetrahedral silicon
11	40.0798 	# calcium ion

Pair Coeffs

1 	0                     	0                 
2 	0                     	0                 
3 	0.15541641243934298   	3.1655200879296763
4 	0.15541641243934298   	3.1655200879296763
5 	0.15541641243934298   	3.1655200879296763
6 	0.15541641243934298   	3.1655200879296763
7 	0.15541641243934298   	3.1655200879296763
8 	9.030188046212057e-07 	5.2643258688466785
9 	1.3297460139101476e-06	4.271321931583935 
10	1.8401795462816938e-06	3.301956625198346 
11	0.09999999803260586   	2.8719902023628787

Bond Coeffs

1	553.935	1.0
2	553.935	1.0
3	553.935	1.0

Angle Coeffs

1	45.753	109.47

Atoms

1  	1 	7 	-1.05  	0.4710000000000001  	2.644              	4.4300000000000015  
2  	1 	3 	-0.95  	1.107               	7.099              	2.3640000000000008  
3  	1 	7 	-1.05  	0.08099999999999996 	5.4239999999999995 	4.431000000000001   
4  	1 	1 	0.425  	1.5619999999999998  	6.313              	2.170000000000001   
5  	1 	10	2.1    	0.32600000000000007 	2.5169999999999995 	6.068000000000001   
6  	1 	10	2.1    	0.258               	5.483              	6.069000000000001   
7  	1 	7 	-1.05  	0.010999999999999677	3.9919999999999995 	6.721000000000001   
8  	1 	10	2.1    	1.3039999999999998  	0.8300000000000001 	0.660000000000001   
9  	1 	10	2.1    	1.236               	3.796              	0.6610000000000005  
10 	1 	10	2.1    	3.9                 	5.337              	0.660000000000001   
11 	1 	7 	-1.05  	4.9879999999999995  	0.35499999999999954	0.21700000000000053 
12 	1 	7 	-1.05  	1.5499999999999998  	2.3209999999999997 	0.008000000000000895
13 	1 	7 	-1.05  	2.392               	4.8629999999999995 	0.21700000000000053 
14 	1 	7 	-1.05  	5.0120000000000005  	4.326              	0.0                 
15 	1 	7 	-1.05  	4.146               	6.827999999999999  	0.008000000000000895
16 	1 	9 	1.575  	2.078               	2.404              	3.3630000000000004  
17 	1 	9 	1.575  	4.676               	3.909              	3.3660000000000005  
18 	1 	9 	1.575  	4.6739999999999995  	6.911              	3.3630000000000004  
19 	1 	6 	-1.1808	1.48                	0.8889999999999993 	2.298000000000001   
20 	1 	6 	-1.1808	2.677               	0.9159999999999995 	4.431000000000001   
21 	1 	7 	-1.05  	1.0899999999999999  	3.6679999999999997 	2.2990000000000013  
22 	1 	3 	-0.95  	3.703               	2.5909999999999993 	2.3640000000000008  
23 	1 	3 	-0.95  	3.0509999999999997  	3.7219999999999995 	4.365               
24 	1 	7 	-1.05  	4.076               	5.397              	2.298000000000001   
25 	1 	7 	-1.05  	3.0669999999999997  	7.151999999999999  	4.4300000000000015  
26 	1 	1 	0.425  	0.0                 	0.0                	4.559000000000001   
27 	1 	1 	0.425  	4.1579999999999995  	1.8049999999999997 	2.170000000000001   
28 	1 	1 	0.425  	2.596               	4.507999999999999  	4.559000000000001   
29 	1 	10	2.1    	2.854               	0.976              	6.069000000000001   
30 	1 	10	2.1    	2.9219999999999997  	7.0249999999999995 	6.068000000000001   
31 	1 	7 	-1.05  	1.742               	1.987              	6.729000000000001   
32 	1 	7 	-1.05  	4.361               	1.4499999999999993 	6.513000000000001   
33 	1 	7 	-1.05  	4.338               	6.494999999999999  	6.729000000000001   
34 	1 	7 	-1.05  	1.765               	5.957              	6.513000000000001   
35 	1 	10	2.1    	3.832               	8.302999999999999  	0.6610000000000005  
36 	1 	7 	-1.05  	2.416               	8.833              	0.0                 
37 	1 	9 	1.575  	2.08                	8.417              	3.3660000000000005  
38 	1 	7 	-1.05  	3.686               	8.176              	2.2990000000000013  
39 	1 	3 	-0.95  	0.45500000000000007 	8.229              	4.365               
40 	1 	7 	-1.05  	2.6069999999999998  	8.5                	6.721000000000001   
41 	1 	7 	-1.05  	0.4710000000000001  	11.477             	4.4300000000000015  
42 	1 	5 	-1.0808	1.107               	15.932             	2.3640000000000008  
43 	1 	6 	-1.1808	0.08099999999999996 	14.257             	4.431000000000001   
44 	1 	1 	0.425  	1.5619999999999998  	15.146             	2.170000000000001   
45 	1 	10	2.1    	0.32600000000000007 	11.35              	6.068000000000001   
46 	1 	10	2.1    	0.258               	14.315999999999999 	6.069000000000001   
47 	1 	7 	-1.05  	0.010999999999999677	12.825             	6.721000000000001   
48 	1 	10	2.1    	1.3039999999999998  	9.663              	0.660000000000001   
49 	1 	10	2.1    	1.236               	12.629             	0.6610000000000005  
50 	1 	10	2.1    	3.9                 	14.17              	0.660000000000001   
51 	1 	7 	-1.05  	4.9879999999999995  	9.187999999999999  	0.21700000000000053 
52 	1 	7 	-1.05  	1.5499999999999998  	11.154             	0.008000000000000895
53 	1 	7 	-1.05  	2.392               	13.696             	0.21700000000000053 
54 	1 	7 	-1.05  	5.0120000000000005  	13.158999999999999 	0.0                 
55 	1 	7 	-1.05  	4.146               	15.661             	0.008000000000000895
56 	1 	9 	1.575  	2.078               	11.237             	3.3630000000000004  
57 	1 	9 	1.575  	4.676               	12.742             	3.3660000000000005  
58 	1 	9 	1.575  	4.6739999999999995  	15.744             	3.3630000000000004  
59 	1 	7 	-1.05  	1.48                	9.722              	2.298000000000001   
60 	1 	7 	-1.05  	2.677               	9.748999999999999  	4.431000000000001   
61 	1 	7 	-1.05  	1.0899999999999999  	12.501             	2.2990000000000013  
62 	1 	3 	-0.95  	3.703               	11.424             	2.3640000000000008  
63 	1 	3 	-0.95  	3.0509999999999997  	12.555             	4.365               
64 	1 	7 	-1.05  	4.076               	14.23              	2.298000000000001   
65 	1 	6 	-1.1808	3.0669999999999997  	15.985             	4.4300000000000015  
66 	1 	1 	0.425  	0.0                 	8.833              	4.559000000000001   
67 	1 	1 	0.425  	4.1579999999999995  	10.638             	2.170000000000001   
68 	1 	1 	0.425  	2.596               	13.341             	4.559000000000001   
69 	1 	10	2.1    	2.854               	9.809000000000001  	6.069000000000001   
70 	1 	10	2.1    	2.9219999999999997  	15.858             	6.068000000000001   
71 	1 	7 	-1.05  	1.742               	10.82              	6.729000000000001   
72 	1 	7 	-1.05  	4.361               	10.283             	6.513000000000001   
73 	1 	7 	-1.05  	4.338               	15.328             	6.729000000000001   
74 	1 	7 	-1.05  	1.765               	14.79              	6.513000000000001   
75 	1 	10	2.1    	3.832               	17.136             	0.6610000000000005  
76 	1 	7 	-1.05  	2.416               	17.666             	0.0                 
77 	1 	8 	1.36   	2.08                	17.25              	3.3660000000000005  
78 	1 	6 	-1.1808	3.686               	17.009             	2.2990000000000013  
79 	1 	5 	-1.0808	0.45500000000000007 	17.061999999999998 	4.365               
80 	1 	7 	-1.05  	2.6069999999999998  	17.333             	6.721000000000001   
81 	1 	7 	-1.05  	5.4830000000000005  	2.644              	4.4300000000000015  
82 	1 	3 	-0.95  	6.119000000000001   	7.099              	2.3640000000000008  
83 	1 	7 	-1.05  	5.093               	5.4239999999999995 	4.431000000000001   
84 	1 	1 	0.425  	6.574               	6.313              	2.170000000000001   
85 	1 	10	2.1    	5.338000000000001   	2.5169999999999995 	6.068000000000001   
86 	1 	10	2.1    	5.2700000000000005  	5.483              	6.069000000000001   
87 	1 	7 	-1.05  	5.023               	3.9919999999999995 	6.721000000000001   
88 	1 	10	2.1    	6.316000000000001   	0.8300000000000001 	0.660000000000001   
89 	1 	10	2.1    	6.248               	3.796              	0.6610000000000005  
90 	1 	10	2.1    	8.912               	5.337              	0.660000000000001   
91 	1 	7 	-1.05  	10.0                	0.35499999999999954	0.21700000000000053 
92 	1 	7 	-1.05  	6.562               	2.3209999999999997 	0.008000000000000895
93 	1 	7 	-1.05  	7.404               	4.8629999999999995 	0.21700000000000053 
94 	1 	7 	-1.05  	10.024000000000001  	4.326              	0.0                 
95 	1 	7 	-1.05  	9.158000000000001   	6.827999999999999  	0.008000000000000895
96 	1 	9 	1.575  	7.09                	2.404              	3.3630000000000004  
97 	1 	9 	1.575  	9.688               	3.909              	3.3660000000000005  
98 	1 	9 	1.575  	9.686               	6.911              	3.3630000000000004  
99 	1 	7 	-1.05  	6.492000000000001   	0.8889999999999993 	2.298000000000001   
100	1 	7 	-1.05  	7.689               	0.9159999999999995 	4.431000000000001   
101	1 	7 	-1.05  	6.102               	3.6679999999999997 	2.2990000000000013  
102	1 	3 	-0.95  	8.715               	2.5909999999999993 	2.3640000000000008  
103	1 	3 	-0.95  	8.063               	3.7219999999999995 	4.365               
104	1 	7 	-1.05  	9.088000000000001   	5.397              	2.298000000000001   
105	1 	7 	-1.05  	8.079               	7.151999999999999  	4.4300000000000015  
106	1 	1 	0.425  	5.0120000000000005  	0.0                	4.559000000000001   
107	1 	1 	0.425  	9.17                	1.8049999999999997 	2.170000000000001   
108	1 	1 	0.425  	7.6080000000000005  	4.507999999999999  	4.559000000000001   
109	1 	10	2.1    	7.8660000000000005  	0.976              	6.069000000000001   
110	1 	10	2.1    	7.934               	7.0249999999999995 	6.068000000000001   
111	1 	7 	-1.05  	6.7540000000000004  	1.987              	6.729000000000001   
112	1 	7 	-1.05  	9.373000000000001   	1.4499999999999993 	6.513000000000001   
113	1 	7 	-1.05  	9.350000000000001   	6.494999999999999  	6.729000000000001   
114	1 	7 	-1.05  	6.777               	5.957              	6.513000000000001   
115	1 	10	2.1    	8.844000000000001   	8.302999999999999  	0.6610000000000005  
116	1 	7 	-1.05  	7.428000000000001   	8.833              	0.0                 
117	1 	9 	1.575  	7.0920000000000005  	8.417              	3.3660000000000005  
118	1 	7 	-1.05  	8.698               	8.176              	2.2990000000000013  
119	1 	3 	-0.95  	5.4670000000000005  	8.229              	4.365               
120	1 	7 	-1.05  	7.619               	8.5                	6.721000000000001   
121	1 	7 	-1.05  	5.4830000000000005  	11.477             	4.4300000000000015  
122	1 	3 	-0.95  	6.119000000000001   	15.932             	2.3640000000000008  
123	1 	7 	-1.05  	5.093               	14.257             	4.431000000000001   
124	1 	1 	0.425  	6.574               	15.146             	2.170000000000001   
125	1 	10	2.1    	5.338000000000001   	11.35              	6.068000000000001   
126	1 	10	2.1    	5.2700000000000005  	14.315999999999999 	6.069000000000001   
127	1 	7 	-1.05  	5.023               	12.825             	6.721000000000001   
128	1 	10	2.1    	6.316000000000001   	9.663              	0.660000000000001   
129	1 	10	2.1    	6.248               	12.629             	0.6610000000000005  
130	1 	10	2.1    	8.912               	14.17              	0.660000000000001   
131	1 	7 	-1.05  	10.0                	9.187999999999999  	0.21700000000000053 
132	1 	7 	-1.05  	6.562               	11.154             	0.008000000000000895
133	1 	7 	-1.05  	7.404               	13.696             	0.21700000000000053 
134	1 	7 	-1.05  	10.024000000000001  	13.158999999999999 	0.0                 
135	1 	7 	-1.05  	9.158000000000001   	15.661             	0.008000000000000895
136	1 	9 	1.575  	7.09                	11.237             	3.3630000000000004  
137	1 	9 	1.575  	9.688               	12.742             	3.3660000000000005  
138	1 	8 	1.36   	9.686               	15.744             	3.3630000000000004  
139	1 	7 	-1.05  	6.492000000000001   	9.722              	2.298000000000001   
140	1 	7 	-1.05  	7.689               	9.748999999999999  	4.431000000000001   
141	1 	7 	-1.05  	6.102               	12.501             	2.2990000000000013  
142	1 	3 	-0.95  	8.715               	11.424             	2.3640000000000008  
143	1 	3 	-0.95  	8.063               	12.555             	4.365               
144	1 	6 	-1.1808	9.088000000000001   	14.23              	2.298000000000001   
145	1 	6 	-1.1808	8.079               	15.985             	4.4300000000000015  
146	1 	1 	0.425  	5.0120000000000005  	8.833              	4.559000000000001   
147	1 	1 	0.425  	9.17                	10.638             	2.170000000000001   
148	1 	1 	0.425  	7.6080000000000005  	13.341             	4.559000000000001   
149	1 	10	2.1    	7.8660000000000005  	9.809000000000001  	6.069000000000001   
150	1 	10	2.1    	7.934               	15.858             	6.068000000000001   
151	1 	7 	-1.05  	6.7540000000000004  	10.82              	6.729000000000001   
152	1 	7 	-1.05  	9.373000000000001   	10.283             	6.513000000000001   
153	1 	7 	-1.05  	9.350000000000001   	15.328             	6.729000000000001   
154	1 	7 	-1.05  	6.777               	14.79              	6.513000000000001   
155	1 	10	2.1    	8.844000000000001   	17.136             	0.6610000000000005  
156	1 	7 	-1.05  	7.428000000000001   	17.666             	0.0                 
157	1 	9 	1.575  	7.0920000000000005  	17.25              	3.3660000000000005  
158	1 	6 	-1.1808	8.698               	17.009             	2.2990000000000013  
159	1 	3 	-0.95  	5.4670000000000005  	17.061999999999998 	4.365               
160	1 	7 	-1.05  	7.619               	17.333             	6.721000000000001   
161	2 	4 	-0.82  	10.0                	13.689999999999998 	19.674500000000002  
162	2 	2 	0.41   	9.18                	14.119999999999997 	20.0645             
163	2 	2 	0.41   	9.72                	12.959999999999997 	19.0445             
164	3 	4 	-0.82  	6.74                	6.499999999999998  	20.234499999999997  
165	3 	2 	0.41   	6.170000000000001   	6.339999999999998  	21.0445             
166	3 	2 	0.41   	6.15                	6.599999999999998  	19.4345             
167	4 	4 	-0.82  	8.620000000000001   	16.189999999999998 	21.764499999999998  
168	4 	2 	0.41   	8.950000000000001   	17.129999999999995 	21.764499999999998  
169	4 	2 	0.41   	9.13                	15.649999999999999 	22.424500000000002  
170	5 	4 	-0.82  	8.74                	16.08              	15.5145             
171	5 	2 	0.41   	8.620000000000001   	15.949999999999998 	14.5245             
172	5 	2 	0.41   	8.440000000000001   	15.269999999999998 	16.0045             
173	6 	4 	-0.82  	7.220000000000001   	14.479999999999997 	20.5745             
174	6 	2 	0.41   	6.48                	14.939999999999998 	20.0745             
175	6 	2 	0.41   	7.73                	15.159999999999998 	21.1045             
176	7 	4 	-0.82  	7.6000000000000005  	2.469999999999998  	17.5245             
177	7 	2 	0.41   	8.46                	2.4899999999999984 	17.0045             
178	7 	2 	0.41   	7.74                	2.9399999999999986 	18.4045             
179	8 	4 	-0.82  	6.44                	1.379999999999999  	15.1045             
180	8 	2 	0.41   	5.8100000000000005  	0.6199999999999992 	15.2345             
181	8 	2 	0.41   	6.920000000000001   	1.5599999999999987 	15.9645             
182	9 	4 	-0.82  	7.86                	8.529999999999998  	18.9245             
183	9 	2 	0.41   	7.450000000000001   	8.299999999999997  	18.0445             
184	9 	2 	0.41   	7.680000000000001   	7.789999999999997  	19.5745             
185	10	4 	-0.82  	6.950000000000001   	8.009999999999998  	16.2745             
186	10	2 	0.41   	7.84                	8.469999999999999  	16.3045             
187	10	2 	0.41   	6.74                	7.769999999999998  	15.3245             
188	11	4 	-0.82  	1.6000000000000014  	17.019999999999996 	17.4945             
189	11	2 	0.41   	1.8600000000000003  	16.979999999999997 	18.4545             
190	11	2 	0.41   	0.75                	16.509999999999998 	17.354499999999998  
191	12	4 	-0.82  	4.8100000000000005  	2.8299999999999983 	18.6545             
192	12	2 	0.41   	5.640000000000001   	2.5399999999999983 	18.1745             
193	12	2 	0.41   	4.32                	3.4999999999999982 	18.0945             
194	13	4 	-0.82  	1.2700000000000014  	5.9499999999999975 	17.9745             
195	13	2 	0.41   	0.8100000000000005  	6.669999999999998  	17.4545             
196	13	2 	0.41   	1.2300000000000004  	6.149999999999998  	18.9545             
197	14	4 	-0.82  	9.14                	2.049999999999997  	21.9345             
198	14	2 	0.41   	8.52                	1.8999999999999968 	21.174500000000002  
199	14	2 	0.41   	8.620000000000001   	2.1599999999999975 	22.7845             
200	15	4 	-0.82  	2.3000000000000007  	9.149999999999999  	15.5745             
201	15	2 	0.41   	1.6999999999999993  	8.529999999999998  	16.0745             
202	15	2 	0.41   	2.610000000000001   	8.709999999999997  	14.724499999999999  
203	16	4 	-0.82  	7.51                	5.159999999999998  	14.0145             
204	16	2 	0.41   	7.19                	6.099999999999998  	13.9145             
205	16	2 	0.41   	6.75                	4.529999999999998  	13.894499999999999  
206	17	4 	-0.82  	5.19                	11.079999999999998 	17.4645             
207	17	2 	0.41   	4.950000000000001   	10.709999999999997 	16.5645             
208	17	2 	0.41   	6.180000000000001   	11.239999999999998 	17.5045             
209	18	4 	-0.82  	0.5899999999999999  	8.369999999999997  	22.244500000000002  
210	18	2 	0.41   	1.3900000000000006  	7.799999999999998  	22.4545             
211	18	2 	0.41   	0.10000000000000142 	7.969999999999998  	21.4745             
212	19	4 	-0.82  	5.53                	3.269999999999998  	13.6145             
213	19	2 	0.41   	5.8500000000000005  	2.509999999999998  	14.1845             
214	19	2 	0.41   	4.61                	3.5399999999999974 	13.9145             
215	20	4 	-0.82  	0.5400000000000009  	12.369999999999997 	18.0045             
216	20	2 	0.41   	0.0600000000000005  	12.779999999999998 	17.2245             
217	20	2 	0.41   	1.5300000000000011  	12.349999999999998 	17.8145             
218	21	4 	-0.82  	3.460000000000001   	7.089999999999998  	21.1345             
219	21	2 	0.41   	3.670000000000001   	7.829999999999998  	20.484499999999997  
220	21	2 	0.41   	4.140000000000001   	7.089999999999998  	21.8645             
221	22	4 	-0.82  	3.9000000000000004  	9.359999999999998  	19.1145             
222	22	2 	0.41   	4.34                	9.999999999999998  	18.4745             
223	22	2 	0.41   	3.4000000000000004  	9.879999999999997  	19.8145             
224	23	4 	-0.82  	1.5100000000000016  	15.499999999999998 	13.3645             
225	23	2 	0.41   	1.0999999999999996  	16.32              	12.974499999999999  
226	23	2 	0.41   	2.1500000000000004  	15.759999999999998 	14.0945             
227	24	4 	-0.82  	1.3600000000000012  	10.399999999999999 	20.7345             
228	24	2 	0.41   	0.6400000000000006  	10.449999999999998 	20.0445             
229	24	2 	0.41   	1.120000000000001   	9.709999999999997  	21.4245             
230	25	4 	-0.82  	5.48                	3.1199999999999983 	21.874499999999998  
231	25	2 	0.41   	4.930000000000001   	2.2799999999999976 	21.804499999999997  
232	25	2 	0.41   	5.740000000000001   	3.4099999999999975 	20.9545             
233	26	4 	-0.82  	7.83                	4.189999999999999  	19.7745             
234	26	2 	0.41   	8.82                	4.269999999999999  	19.9145             
235	26	2 	0.41   	7.380000000000001   	5.029999999999998  	20.0845             
236	27	4 	-0.82  	5.090000000000001   	15.759999999999998 	13.984499999999999  
237	27	2 	0.41   	4.550000000000001   	15.549999999999999 	14.7945             
238	27	2 	0.41   	6.0                 	15.349999999999998 	14.074499999999999  
239	28	4 	-0.82  	3.710000000000001   	4.869999999999997  	17.0845             
240	28	2 	0.41   	4.21                	5.639999999999998  	17.4845             
241	28	2 	0.41   	2.7600000000000007  	4.889999999999998  	17.4045             
242	29	4 	-0.82  	7.01                	16.4               	17.9245             
243	29	2 	0.41   	6.700000000000001   	17.009999999999998 	18.6545             
244	29	2 	0.41   	7.51                	16.919999999999998 	17.2345             
245	30	4 	-0.82  	3.2800000000000002  	15.259999999999998 	15.9545             
246	30	2 	0.41   	3.41                	14.419999999999998 	16.4945             
247	30	2 	0.41   	2.99                	15.999999999999998 	16.5545             
248	31	4 	-0.82  	7.41                	13.679999999999998 	16.944499999999998  
249	31	2 	0.41   	7.430000000000001   	12.919999999999998 	17.5845             
250	31	2 	0.41   	6.930000000000001   	14.45              	17.3445             
251	32	4 	-0.82  	6.59                	12.749999999999998 	14.4545             
252	32	2 	0.41   	5.98                	11.999999999999998 	14.6845             
253	32	2 	0.41   	6.8100000000000005  	13.269999999999998 	15.2845             
254	33	4 	-0.82  	1.87                	4.719999999999998  	21.694499999999998  
255	33	2 	0.41   	1.9400000000000004  	3.879999999999998  	21.1445             
256	33	2 	0.41   	2.49                	5.4099999999999975 	21.3345             
257	34	4 	-0.82  	9.89                	4.649999999999998  	15.2045             
258	34	2 	0.41   	8.96                	4.859999999999998  	14.894499999999999  
259	34	2 	0.41   	9.99                	3.6599999999999984 	15.334499999999998  
260	35	4 	-0.82  	8.450000000000001   	11.359999999999998 	18.4345             
261	35	2 	0.41   	9.18                	11.189999999999998 	17.764499999999998  
262	35	2 	0.41   	8.14                	10.489999999999998 	18.8145             
263	36	4 	-0.82  	5.07                	7.119999999999998  	17.9745             
264	36	2 	0.41   	5.740000000000001   	7.2399999999999975 	17.2345             
265	36	2 	0.41   	4.67                	8.009999999999998  	18.2045             
266	37	4 	-0.82  	3.13                	7.509999999999998  	13.5145             
267	37	2 	0.41   	3.1900000000000004  	6.579999999999998  	13.8845             
268	37	2 	0.41   	2.540000000000001   	7.509999999999998  	12.7145             
269	38	4 	-0.82  	6.23                	7.459999999999998  	13.644499999999999  
270	38	2 	0.41   	5.3100000000000005  	7.829999999999998  	13.7145             
271	38	2 	0.41   	6.61                	7.659999999999998  	12.744499999999999  
272	39	4 	-0.82  	1.58                	2.3699999999999974 	20.164499999999997  
273	39	2 	0.41   	0.8800000000000008  	1.8999999999999968 	20.7045             
274	39	2 	0.41   	2.17                	1.6899999999999977 	19.7345             
275	40	4 	-0.82  	3.0199999999999996  	4.7399999999999975 	14.394499999999999  
276	40	2 	0.41   	2.0300000000000002  	4.629999999999997  	14.4145             
277	40	2 	0.41   	3.3600000000000003  	4.889999999999998  	15.3245             
278	41	4 	-0.82  	3.4400000000000004  	13.259999999999998 	17.694499999999998  
279	41	2 	0.41   	4.090000000000001   	12.519999999999998 	17.5845             
280	41	2 	0.41   	3.6400000000000006  	13.759999999999998 	18.5345             
281	42	4 	-0.82  	2.0200000000000005  	1.2299999999999986 	14.074499999999999  
282	42	2 	0.41   	1.790000000000001   	1.759999999999998  	13.2545             
283	42	2 	0.41   	2.830000000000001   	0.6699999999999982 	13.8845             
284	43	4 	-0.82  	9.8                 	7.079999999999998  	21.7145             
285	43	2 	0.41   	9.09                	6.959999999999998  	21.014499999999998  
286	43	2 	0.41   	9.81                	6.289999999999998  	22.3145             
287	44	4 	-0.82  	4.710000000000001   	10.529999999999998 	14.8845             
288	44	2 	0.41   	5.0600000000000005  	10.119999999999997 	14.0445             
289	44	2 	0.41   	3.8100000000000005  	10.149999999999999 	15.084499999999998  
290	45	4 	-0.82  	4.1899999999999995  	14.54              	20.1145             
291	45	2 	0.41   	3.6000000000000005  	15.339999999999998 	20.1545             
292	45	2 	0.41   	4.34                	14.189999999999998 	21.0445             
293	46	4 	-0.82  	7.12                	12.219999999999999 	22.0245             
294	46	2 	0.41   	6.280000000000001   	12.209999999999997 	22.564500000000002  
295	46	2 	0.41   	7.140000000000001   	13.049999999999997 	21.4645             
296	47	4 	-0.82  	9.6                 	11.759999999999998 	23.9045             
297	47	2 	0.41   	9.99                	10.909999999999998 	23.544499999999996  
298	47	2 	0.41   	8.620000000000001   	11.779999999999998 	23.714499999999997  
299	48	11	2.0    	0.0                 	0.0                	18.3645             
300	49	11	2.0    	0.0                 	8.833              	18.3645             

Bonds

1  	2	2  	4  
2  	2	22 	27 
3  	2	23 	28 
4  	1	26 	79 
5  	2	39 	66 
6  	1	42 	44 
7  	2	62 	67 
8  	2	63 	68 
9  	2	82 	84 
10 	2	102	107
11 	2	103	108
12 	2	106	159
13 	2	119	146
14 	2	122	124
15 	2	142	147
16 	2	143	148
17 	3	161	162
18 	3	161	163
19 	3	164	165
20 	3	164	166
21 	3	167	168
22 	3	167	169
23 	3	170	171
24 	3	170	172
25 	3	173	174
26 	3	173	175
27 	3	176	177
28 	3	176	178
29 	3	179	180
30 	3	179	181
31 	3	182	183
32 	3	182	184
33 	3	185	186
34 	3	185	187
35 	3	188	189
36 	3	188	190
37 	3	191	192
38 	3	191	193
39 	3	194	195
40 	3	194	196
41 	3	197	198
42 	3	197	199
43 	3	200	201
44 	3	200	202
45 	3	203	204
46 	3	203	205
47 	3	206	207
48 	3	206	208
49 	3	209	210
50 	3	209	211
51 	3	212	213
52 	3	212	214
53 	3	215	216
54 	3	215	217
55 	3	218	219
56 	3	218	220
57 	3	221	222
58 	3	221	223
59 	3	224	225
60 	3	224	226
61 	3	227	228
62 	3	227	229
63 	3	230	231
64 	3	230	232
65 	3	233	234
66 	3	233	235
67 	3	236	237
68 	3	236	238
69 	3	239	240
70 	3	239	241
71 	3	242	243
72 	3	242	244
73 	3	245	246
74 	3	245	247
75 	3	248	249
76 	3	248	250
77 	3	251	252
78 	3	251	253
79 	3	254	255
80 	3	254	256
81 	3	257	258
82 	3	257	259
83 	3	260	261
84 	3	260	262
85 	3	263	264
86 	3	263	265
87 	3	266	267
88 	3	266	268
89 	3	269	270
90 	3	269	271
91 	3	272	273
92 	3	272	274
93 	3	275	276
94 	3	275	277
95 	3	278	279
96 	3	278	280
97 	3	281	282
98 	3	281	283
99 	3	284	285
100	3	284	286
101	3	287	288
102	3	287	289
103	3	290	291
104	3	290	292
105	3	293	294
106	3	293	295
107	3	296	297
108	3	296	298

Angles

1 	1	162	161	163
2 	1	165	164	166
3 	1	168	167	169
4 	1	171	170	172
5 	1	174	173	175
6 	1	177	176	178
7 	1	180	179	181
8 	1	183	182	184
9 	1	186	185	187
10	1	189	188	190
11	1	192	191	193
12	1	195	194	196
13	1	198	197	199
14	1	201	200	202
15	1	204	203	205
16	1	207	206	208
17	1	210	209	211
18	1	213	212	214
19	1	216	215	217
20	1	219	218	220
21	1	222	221	223
22	1	225	224	226
23	1	228	227	229
24	1	231	230	232
25	1	234	233	235
26	1	237	236	238
27	1	240	239	241
28	1	243	242	244
29	1	246	245	247
30	1	249	248	250
31	1	252	251	253
32	1	255	254	256
33	1	258	257	259
34	1	261	260	262
35	1	264	263	265
36	1	267	266	268
37	1	270	269	271
38	1	273	272	274
39	1	276	275	277
40	1	279	278	280
41	1	282	281	283
42	1	285	284	286
43	1	288	287	289
44	1	291	290	292
45	1	294	293	295
46	1	297	296	298

