Generated DATA file using 'LAMMPS MT DATA FILE GENERATOR'
655 atoms
230 bonds
97 angles
0 dihedrals
0 impropers

11 atom types
3 bond types
1 angle types
0 dihedral types
0 improper types

0.0                  15.036000000000001   xlo xhi
0.0                  26.499000000000002   ylo yhi
3.3645000000000005   41.0884998856        zlo zhi


Masses

1 	1.00797 	# hydroxyl H
2 	1.00797 	# spc water H
3 	15.9994 	# bridging oxygen
4 	15.9994 	# hydroxyl O
5 	15.9994 	# hydroxyl O sub.
6 	15.9994 	# oxygen oct. sub.
7 	15.9994 	# spc water O
8 	24.305  	# octahedral magnesium
9 	26.98154	# octahedral aluminum
10	28.0855 	# tetrahedral silicon
11	40.0798 	# calcium ion

Pair Coeffs

1 	0                     	0                 
2 	0                     	0                 
3 	0.15541641243934298   	3.1655200879296763
4 	0.15541641243934298   	3.1655200879296763
5 	0.15541641243934298   	3.1655200879296763
6 	0.15541641243934298   	3.1655200879296763
7 	0.15541641243934298   	3.1655200879296763
8 	9.030188046212057e-07 	5.2643258688466785
9 	1.3297460139101476e-06	4.271321931583935 
10	1.8401795462816938e-06	3.301956625198346 
11	0.09999999803260586   	2.8719902023628787

Bond Coeffs

1	553.935	1.0
2	553.935	1.0
3	553.935	1.0

Angle Coeffs

1	45.753	109.47

Atoms

1  	1  	9 	1.575  	2.078               	2.404              	3.3630000000000004  
2  	1  	9 	1.575  	2.078               	11.237             	3.3630000000000004  
3  	1  	9 	1.575  	2.078               	20.07              	3.3630000000000004  
4  	1  	9 	1.575  	2.08                	8.417              	3.3660000000000005  
5  	1  	9 	1.575  	2.08                	26.083             	3.3660000000000005  
6  	1  	9 	1.575  	4.6739999999999995  	6.911              	3.3630000000000004  
7  	1  	9 	1.575  	4.6739999999999995  	15.744             	3.3630000000000004  
8  	1  	9 	1.575  	4.6739999999999995  	24.576999999999998 	3.3630000000000004  
9  	1  	9 	1.575  	4.676               	3.909              	3.3660000000000005  
10 	1  	9 	1.575  	4.676               	12.742             	3.3660000000000005  
11 	1  	9 	1.575  	4.676               	21.575             	3.3660000000000005  
12 	1  	9 	1.575  	7.09                	2.404              	3.3630000000000004  
13 	1  	9 	1.575  	7.09                	11.237             	3.3630000000000004  
14 	1  	9 	1.575  	7.09                	20.07              	3.3630000000000004  
15 	1  	9 	1.575  	7.0920000000000005  	8.417              	3.3660000000000005  
16 	1  	9 	1.575  	7.0920000000000005  	17.25              	3.3660000000000005  
17 	1  	9 	1.575  	7.0920000000000005  	26.083             	3.3660000000000005  
18 	1  	9 	1.575  	9.686               	15.744             	3.3630000000000004  
19 	1  	9 	1.575  	9.686               	24.576999999999998 	3.3630000000000004  
20 	1  	9 	1.575  	9.688               	3.909              	3.3660000000000005  
21 	1  	9 	1.575  	9.688               	12.742             	3.3660000000000005  
22 	1  	9 	1.575  	12.102              	2.404              	3.3630000000000004  
23 	1  	9 	1.575  	12.102              	20.07              	3.3630000000000004  
24 	1  	9 	1.575  	12.104000000000001  	8.417              	3.3660000000000005  
25 	1  	9 	1.575  	12.104000000000001  	17.25              	3.3660000000000005  
26 	1  	9 	1.575  	14.698              	6.911              	3.3630000000000004  
27 	1  	9 	1.575  	14.698              	15.744             	3.3630000000000004  
28 	1  	9 	1.575  	14.698              	24.576999999999998 	3.3630000000000004  
29 	1  	9 	1.575  	14.700000000000001  	3.909              	3.3660000000000005  
30 	1  	9 	1.575  	14.700000000000001  	12.742             	3.3660000000000005  
31 	1  	9 	1.575  	14.700000000000001  	21.575             	3.3660000000000005  
32 	1  	1 	0.425  	0.0                 	0.0                	4.559000000000001   
33 	1  	1 	0.425  	0.0                 	8.833              	4.559000000000001   
34 	1  	1 	0.425  	0.0                 	17.666             	4.559000000000001   
35 	1  	1 	0.425  	1.5619999999999998  	6.313              	2.170000000000001   
36 	1  	1 	0.425  	1.5619999999999998  	15.146             	2.170000000000001   
37 	1  	1 	0.425  	1.5619999999999998  	23.979             	2.170000000000001   
38 	1  	1 	0.425  	2.596               	4.507999999999999  	4.559000000000001   
39 	1  	1 	0.425  	2.596               	13.341             	4.559000000000001   
40 	1  	1 	0.425  	2.596               	22.174             	4.559000000000001   
41 	1  	1 	0.425  	4.1579999999999995  	1.8049999999999997 	2.170000000000001   
42 	1  	1 	0.425  	4.1579999999999995  	10.638             	2.170000000000001   
43 	1  	1 	0.425  	4.1579999999999995  	19.471             	2.170000000000001   
44 	1  	1 	0.425  	5.0120000000000005  	0.0                	4.559000000000001   
45 	1  	1 	0.425  	5.0120000000000005  	8.833              	4.559000000000001   
46 	1  	1 	0.425  	5.0120000000000005  	17.666             	4.559000000000001   
47 	1  	1 	0.425  	6.574               	6.313              	2.170000000000001   
48 	1  	1 	0.425  	6.574               	15.146             	2.170000000000001   
49 	1  	1 	0.425  	6.574               	23.979             	2.170000000000001   
50 	1  	1 	0.425  	7.6080000000000005  	4.507999999999999  	4.559000000000001   
51 	1  	1 	0.425  	7.6080000000000005  	13.341             	4.559000000000001   
52 	1  	1 	0.425  	7.6080000000000005  	22.174             	4.559000000000001   
53 	1  	1 	0.425  	9.17                	1.8049999999999997 	2.170000000000001   
54 	1  	1 	0.425  	9.17                	10.638             	2.170000000000001   
55 	1  	1 	0.425  	9.17                	19.471             	2.170000000000001   
56 	1  	1 	0.425  	10.024000000000001  	0.0                	4.559000000000001   
57 	1  	1 	0.425  	10.024000000000001  	8.833              	4.559000000000001   
58 	1  	1 	0.425  	10.024000000000001  	17.666             	4.559000000000001   
59 	1  	1 	0.425  	11.586              	6.313              	2.170000000000001   
60 	1  	1 	0.425  	11.586              	15.146             	2.170000000000001   
61 	1  	1 	0.425  	11.586              	23.979             	2.170000000000001   
62 	1  	1 	0.425  	12.620000000000001  	4.507999999999999  	4.559000000000001   
63 	1  	1 	0.425  	12.620000000000001  	13.341             	4.559000000000001   
64 	1  	1 	0.425  	12.620000000000001  	22.174             	4.559000000000001   
65 	1  	1 	0.425  	14.182              	1.8049999999999997 	2.170000000000001   
66 	1  	1 	0.425  	14.182              	10.638             	2.170000000000001   
67 	1  	1 	0.425  	14.182              	19.471             	2.170000000000001   
68 	1  	8 	1.36   	2.08                	17.25              	3.3660000000000005  
69 	1  	8 	1.36   	9.686               	6.911              	3.3630000000000004  
70 	1  	8 	1.36   	9.688               	21.575             	3.3660000000000005  
71 	1  	8 	1.36   	12.102              	11.237             	3.3630000000000004  
72 	1  	8 	1.36   	12.104000000000001  	26.083             	3.3660000000000005  
73 	1  	3 	-1.05  	0.010999999999999677	3.9919999999999995 	6.721000000000001   
74 	1  	3 	-1.05  	0.010999999999999677	12.825             	6.721000000000001   
75 	1  	3 	-1.05  	0.010999999999999677	21.658             	6.721000000000001   
76 	1  	3 	-1.05  	0.08099999999999996 	5.4239999999999995 	4.431000000000001   
77 	1  	3 	-1.05  	0.08099999999999996 	14.257             	4.431000000000001   
78 	1  	3 	-1.05  	0.08099999999999996 	23.09              	4.431000000000001   
79 	1  	4 	-0.95  	0.45500000000000007 	8.229              	4.365               
80 	1  	5 	-1.0808	0.45500000000000007 	17.061999999999998 	4.365               
81 	1  	4 	-0.95  	0.45500000000000007 	25.895             	4.365               
82 	1  	3 	-1.05  	0.4710000000000001  	2.644              	4.4300000000000015  
83 	1  	3 	-1.05  	0.4710000000000001  	11.477             	4.4300000000000015  
84 	1  	3 	-1.05  	0.4710000000000001  	20.310000000000002 	4.4300000000000015  
85 	1  	3 	-1.05  	1.0899999999999999  	3.6679999999999997 	2.2990000000000013  
86 	1  	3 	-1.05  	1.0899999999999999  	12.501             	2.2990000000000013  
87 	1  	3 	-1.05  	1.0899999999999999  	21.334             	2.2990000000000013  
88 	1  	4 	-0.95  	1.107               	7.099              	2.3640000000000008  
89 	1  	5 	-1.0808	1.107               	15.932             	2.3640000000000008  
90 	1  	4 	-0.95  	1.107               	24.765             	2.3640000000000008  
91 	1  	3 	-1.05  	1.48                	0.8889999999999993 	2.298000000000001   
92 	1  	3 	-1.05  	1.48                	9.722              	2.298000000000001   
93 	1  	6 	-1.1808	1.48                	18.555             	2.298000000000001   
94 	1  	3 	-1.05  	1.5499999999999998  	2.3209999999999997 	0.008000000000000895
95 	1  	3 	-1.05  	1.5499999999999998  	11.154             	0.008000000000000895
96 	1  	3 	-1.05  	1.5499999999999998  	19.987000000000002 	0.008000000000000895
97 	1  	3 	-1.05  	1.742               	1.987              	6.729000000000001   
98 	1  	3 	-1.05  	1.742               	10.82              	6.729000000000001   
99 	1  	3 	-1.05  	1.742               	19.653             	6.729000000000001   
100	1  	3 	-1.05  	1.765               	5.957              	6.513000000000001   
101	1  	3 	-1.05  	1.765               	14.79              	6.513000000000001   
102	1  	3 	-1.05  	1.765               	23.623             	6.513000000000001   
103	1  	3 	-1.05  	2.392               	4.8629999999999995 	0.21700000000000053 
104	1  	3 	-1.05  	2.392               	13.696             	0.21700000000000053 
105	1  	3 	-1.05  	2.392               	22.529             	0.21700000000000053 
106	1  	3 	-1.05  	2.416               	8.833              	0.0                 
107	1  	3 	-1.05  	2.416               	17.666             	0.0                 
108	1  	3 	-1.05  	2.416               	26.499000000000002 	0.0                 
109	1  	3 	-1.05  	2.6069999999999998  	8.5                	6.721000000000001   
110	1  	3 	-1.05  	2.6069999999999998  	17.333             	6.721000000000001   
111	1  	3 	-1.05  	2.6069999999999998  	26.166             	6.721000000000001   
112	1  	3 	-1.05  	2.677               	0.9159999999999995 	4.431000000000001   
113	1  	3 	-1.05  	2.677               	9.748999999999999  	4.431000000000001   
114	1  	6 	-1.1808	2.677               	18.582             	4.431000000000001   
115	1  	4 	-0.95  	3.0509999999999997  	3.7219999999999995 	4.365               
116	1  	4 	-0.95  	3.0509999999999997  	12.555             	4.365               
117	1  	4 	-0.95  	3.0509999999999997  	21.387999999999998 	4.365               
118	1  	3 	-1.05  	3.0669999999999997  	7.151999999999999  	4.4300000000000015  
119	1  	6 	-1.1808	3.0669999999999997  	15.985             	4.4300000000000015  
120	1  	3 	-1.05  	3.0669999999999997  	24.817999999999998 	4.4300000000000015  
121	1  	3 	-1.05  	3.686               	8.176              	2.2990000000000013  
122	1  	6 	-1.1808	3.686               	17.009             	2.2990000000000013  
123	1  	3 	-1.05  	3.686               	25.842             	2.2990000000000013  
124	1  	4 	-0.95  	3.703               	2.5909999999999993 	2.3640000000000008  
125	1  	4 	-0.95  	3.703               	11.424             	2.3640000000000008  
126	1  	4 	-0.95  	3.703               	20.256999999999998 	2.3640000000000008  
127	1  	3 	-1.05  	4.076               	5.397              	2.298000000000001   
128	1  	3 	-1.05  	4.076               	14.23              	2.298000000000001   
129	1  	3 	-1.05  	4.076               	23.063000000000002 	2.298000000000001   
130	1  	3 	-1.05  	4.146               	6.827999999999999  	0.008000000000000895
131	1  	3 	-1.05  	4.146               	15.661             	0.008000000000000895
132	1  	3 	-1.05  	4.146               	24.494             	0.008000000000000895
133	1  	3 	-1.05  	4.338               	6.494999999999999  	6.729000000000001   
134	1  	3 	-1.05  	4.338               	15.328             	6.729000000000001   
135	1  	3 	-1.05  	4.338               	24.161             	6.729000000000001   
136	1  	3 	-1.05  	4.361               	1.4499999999999993 	6.513000000000001   
137	1  	3 	-1.05  	4.361               	10.283             	6.513000000000001   
138	1  	3 	-1.05  	4.361               	19.116             	6.513000000000001   
139	1  	3 	-1.05  	4.9879999999999995  	0.35499999999999954	0.21700000000000053 
140	1  	3 	-1.05  	4.9879999999999995  	9.187999999999999  	0.21700000000000053 
141	1  	3 	-1.05  	4.9879999999999995  	18.021             	0.21700000000000053 
142	1  	3 	-1.05  	5.0120000000000005  	4.326              	0.0                 
143	1  	3 	-1.05  	5.0120000000000005  	13.158999999999999 	0.0                 
144	1  	3 	-1.05  	5.0120000000000005  	21.992             	0.0                 
145	1  	3 	-1.05  	5.023               	3.9919999999999995 	6.721000000000001   
146	1  	3 	-1.05  	5.023               	12.825             	6.721000000000001   
147	1  	3 	-1.05  	5.023               	21.658             	6.721000000000001   
148	1  	3 	-1.05  	5.093               	5.4239999999999995 	4.431000000000001   
149	1  	3 	-1.05  	5.093               	14.257             	4.431000000000001   
150	1  	3 	-1.05  	5.093               	23.09              	4.431000000000001   
151	1  	4 	-0.95  	5.4670000000000005  	8.229              	4.365               
152	1  	4 	-0.95  	5.4670000000000005  	17.061999999999998 	4.365               
153	1  	4 	-0.95  	5.4670000000000005  	25.895             	4.365               
154	1  	3 	-1.05  	5.4830000000000005  	2.644              	4.4300000000000015  
155	1  	3 	-1.05  	5.4830000000000005  	11.477             	4.4300000000000015  
156	1  	3 	-1.05  	5.4830000000000005  	20.310000000000002 	4.4300000000000015  
157	1  	3 	-1.05  	6.102               	3.6679999999999997 	2.2990000000000013  
158	1  	3 	-1.05  	6.102               	12.501             	2.2990000000000013  
159	1  	3 	-1.05  	6.102               	21.334             	2.2990000000000013  
160	1  	4 	-0.95  	6.119000000000001   	7.099              	2.3640000000000008  
161	1  	4 	-0.95  	6.119000000000001   	15.932             	2.3640000000000008  
162	1  	4 	-0.95  	6.119000000000001   	24.765             	2.3640000000000008  
163	1  	3 	-1.05  	6.492000000000001   	0.8889999999999993 	2.298000000000001   
164	1  	3 	-1.05  	6.492000000000001   	9.722              	2.298000000000001   
165	1  	3 	-1.05  	6.492000000000001   	18.555             	2.298000000000001   
166	1  	3 	-1.05  	6.562               	2.3209999999999997 	0.008000000000000895
167	1  	3 	-1.05  	6.562               	11.154             	0.008000000000000895
168	1  	3 	-1.05  	6.562               	19.987000000000002 	0.008000000000000895
169	1  	3 	-1.05  	6.7540000000000004  	1.987              	6.729000000000001   
170	1  	3 	-1.05  	6.7540000000000004  	10.82              	6.729000000000001   
171	1  	3 	-1.05  	6.7540000000000004  	19.653             	6.729000000000001   
172	1  	3 	-1.05  	6.777               	5.957              	6.513000000000001   
173	1  	3 	-1.05  	6.777               	14.79              	6.513000000000001   
174	1  	3 	-1.05  	6.777               	23.623             	6.513000000000001   
175	1  	3 	-1.05  	7.404               	4.8629999999999995 	0.21700000000000053 
176	1  	3 	-1.05  	7.404               	13.696             	0.21700000000000053 
177	1  	3 	-1.05  	7.404               	22.529             	0.21700000000000053 
178	1  	3 	-1.05  	7.428000000000001   	8.833              	0.0                 
179	1  	3 	-1.05  	7.428000000000001   	17.666             	0.0                 
180	1  	3 	-1.05  	7.428000000000001   	26.499000000000002 	0.0                 
181	1  	3 	-1.05  	7.619               	8.5                	6.721000000000001   
182	1  	3 	-1.05  	7.619               	17.333             	6.721000000000001   
183	1  	3 	-1.05  	7.619               	26.166             	6.721000000000001   
184	1  	3 	-1.05  	7.689               	0.9159999999999995 	4.431000000000001   
185	1  	3 	-1.05  	7.689               	9.748999999999999  	4.431000000000001   
186	1  	3 	-1.05  	7.689               	18.582             	4.431000000000001   
187	1  	4 	-0.95  	8.063               	3.7219999999999995 	4.365               
188	1  	4 	-0.95  	8.063               	12.555             	4.365               
189	1  	5 	-1.0808	8.063               	21.387999999999998 	4.365               
190	1  	6 	-1.1808	8.079               	7.151999999999999  	4.4300000000000015  
191	1  	3 	-1.05  	8.079               	15.985             	4.4300000000000015  
192	1  	3 	-1.05  	8.079               	24.817999999999998 	4.4300000000000015  
193	1  	6 	-1.1808	8.698               	8.176              	2.2990000000000013  
194	1  	3 	-1.05  	8.698               	17.009             	2.2990000000000013  
195	1  	3 	-1.05  	8.698               	25.842             	2.2990000000000013  
196	1  	4 	-0.95  	8.715               	2.5909999999999993 	2.3640000000000008  
197	1  	4 	-0.95  	8.715               	11.424             	2.3640000000000008  
198	1  	5 	-1.0808	8.715               	20.256999999999998 	2.3640000000000008  
199	1  	6 	-1.1808	9.088000000000001   	5.397              	2.298000000000001   
200	1  	3 	-1.05  	9.088000000000001   	14.23              	2.298000000000001   
201	1  	6 	-1.1808	9.088000000000001   	23.063000000000002 	2.298000000000001   
202	1  	3 	-1.05  	9.158000000000001   	6.827999999999999  	0.008000000000000895
203	1  	3 	-1.05  	9.158000000000001   	15.661             	0.008000000000000895
204	1  	3 	-1.05  	9.158000000000001   	24.494             	0.008000000000000895
205	1  	3 	-1.05  	9.350000000000001   	6.494999999999999  	6.729000000000001   
206	1  	3 	-1.05  	9.350000000000001   	15.328             	6.729000000000001   
207	1  	3 	-1.05  	9.350000000000001   	24.161             	6.729000000000001   
208	1  	3 	-1.05  	9.373000000000001   	1.4499999999999993 	6.513000000000001   
209	1  	3 	-1.05  	9.373000000000001   	10.283             	6.513000000000001   
210	1  	3 	-1.05  	9.373000000000001   	19.116             	6.513000000000001   
211	1  	3 	-1.05  	10.0                	0.35499999999999954	0.21700000000000053 
212	1  	3 	-1.05  	10.0                	9.187999999999999  	0.21700000000000053 
213	1  	3 	-1.05  	10.0                	18.021             	0.21700000000000053 
214	1  	3 	-1.05  	10.024000000000001  	4.326              	0.0                 
215	1  	3 	-1.05  	10.024000000000001  	13.158999999999999 	0.0                 
216	1  	3 	-1.05  	10.024000000000001  	21.992             	0.0                 
217	1  	3 	-1.05  	10.035              	3.9919999999999995 	6.721000000000001   
218	1  	3 	-1.05  	10.035              	12.825             	6.721000000000001   
219	1  	3 	-1.05  	10.035              	21.658             	6.721000000000001   
220	1  	6 	-1.1808	10.105              	5.4239999999999995 	4.431000000000001   
221	1  	3 	-1.05  	10.105              	14.257             	4.431000000000001   
222	1  	6 	-1.1808	10.105              	23.09              	4.431000000000001   
223	1  	5 	-1.0808	10.479000000000001  	8.229              	4.365               
224	1  	4 	-0.95  	10.479000000000001  	17.061999999999998 	4.365               
225	1  	5 	-1.0808	10.479000000000001  	25.895             	4.365               
226	1  	3 	-1.05  	10.495000000000001  	2.644              	4.4300000000000015  
227	1  	6 	-1.1808	10.495000000000001  	11.477             	4.4300000000000015  
228	1  	6 	-1.1808	10.495000000000001  	20.310000000000002 	4.4300000000000015  
229	1  	3 	-1.05  	11.114              	3.6679999999999997 	2.2990000000000013  
230	1  	6 	-1.1808	11.114              	12.501             	2.2990000000000013  
231	1  	6 	-1.1808	11.114              	21.334             	2.2990000000000013  
232	1  	5 	-1.0808	11.131              	7.099              	2.3640000000000008  
233	1  	4 	-0.95  	11.131              	15.932             	2.3640000000000008  
234	1  	5 	-1.0808	11.131              	24.765             	2.3640000000000008  
235	1  	6 	-1.1808	11.504000000000001  	0.8889999999999993 	2.298000000000001   
236	1  	6 	-1.1808	11.504000000000001  	9.722              	2.298000000000001   
237	1  	3 	-1.05  	11.504000000000001  	18.555             	2.298000000000001   
238	1  	3 	-1.05  	11.574000000000002  	2.3209999999999997 	0.008000000000000895
239	1  	3 	-1.05  	11.574000000000002  	11.154             	0.008000000000000895
240	1  	3 	-1.05  	11.574000000000002  	19.987000000000002 	0.008000000000000895
241	1  	3 	-1.05  	11.766000000000002  	1.987              	6.729000000000001   
242	1  	3 	-1.05  	11.766000000000002  	10.82              	6.729000000000001   
243	1  	3 	-1.05  	11.766000000000002  	19.653             	6.729000000000001   
244	1  	3 	-1.05  	11.789000000000001  	5.957              	6.513000000000001   
245	1  	3 	-1.05  	11.789000000000001  	14.79              	6.513000000000001   
246	1  	3 	-1.05  	11.789000000000001  	23.623             	6.513000000000001   
247	1  	3 	-1.05  	12.416              	4.8629999999999995 	0.21700000000000053 
248	1  	3 	-1.05  	12.416              	13.696             	0.21700000000000053 
249	1  	3 	-1.05  	12.416              	22.529             	0.21700000000000053 
250	1  	3 	-1.05  	12.440000000000001  	8.833              	0.0                 
251	1  	3 	-1.05  	12.440000000000001  	17.666             	0.0                 
252	1  	3 	-1.05  	12.440000000000001  	26.499000000000002 	0.0                 
253	1  	3 	-1.05  	12.631              	8.5                	6.721000000000001   
254	1  	3 	-1.05  	12.631              	17.333             	6.721000000000001   
255	1  	3 	-1.05  	12.631              	26.166             	6.721000000000001   
256	1  	6 	-1.1808	12.701              	0.9159999999999995 	4.431000000000001   
257	1  	6 	-1.1808	12.701              	9.748999999999999  	4.431000000000001   
258	1  	3 	-1.05  	12.701              	18.582             	4.431000000000001   
259	1  	4 	-0.95  	13.075000000000001  	3.7219999999999995 	4.365               
260	1  	5 	-1.0808	13.075000000000001  	12.555             	4.365               
261	1  	4 	-0.95  	13.075000000000001  	21.387999999999998 	4.365               
262	1  	3 	-1.05  	13.091000000000001  	7.151999999999999  	4.4300000000000015  
263	1  	3 	-1.05  	13.091000000000001  	15.985             	4.4300000000000015  
264	1  	6 	-1.1808	13.091000000000001  	24.817999999999998 	4.4300000000000015  
265	1  	3 	-1.05  	13.71               	8.176              	2.2990000000000013  
266	1  	3 	-1.05  	13.71               	17.009             	2.2990000000000013  
267	1  	6 	-1.1808	13.71               	25.842             	2.2990000000000013  
268	1  	4 	-0.95  	13.727              	2.5909999999999993 	2.3640000000000008  
269	1  	5 	-1.0808	13.727              	11.424             	2.3640000000000008  
270	1  	4 	-0.95  	13.727              	20.256999999999998 	2.3640000000000008  
271	1  	3 	-1.05  	14.100000000000001  	5.397              	2.298000000000001   
272	1  	3 	-1.05  	14.100000000000001  	14.23              	2.298000000000001   
273	1  	3 	-1.05  	14.100000000000001  	23.063000000000002 	2.298000000000001   
274	1  	3 	-1.05  	14.170000000000002  	6.827999999999999  	0.008000000000000895
275	1  	3 	-1.05  	14.170000000000002  	15.661             	0.008000000000000895
276	1  	3 	-1.05  	14.170000000000002  	24.494             	0.008000000000000895
277	1  	3 	-1.05  	14.362000000000002  	6.494999999999999  	6.729000000000001   
278	1  	3 	-1.05  	14.362000000000002  	15.328             	6.729000000000001   
279	1  	3 	-1.05  	14.362000000000002  	24.161             	6.729000000000001   
280	1  	3 	-1.05  	14.385000000000002  	1.4499999999999993 	6.513000000000001   
281	1  	3 	-1.05  	14.385000000000002  	10.283             	6.513000000000001   
282	1  	3 	-1.05  	14.385000000000002  	19.116             	6.513000000000001   
283	1  	3 	-1.05  	15.012              	0.35499999999999954	0.21700000000000053 
284	1  	3 	-1.05  	15.012              	9.187999999999999  	0.21700000000000053 
285	1  	3 	-1.05  	15.012              	18.021             	0.21700000000000053 
286	1  	3 	-1.05  	15.036000000000001  	4.326              	0.0                 
287	1  	3 	-1.05  	15.036000000000001  	13.158999999999999 	0.0                 
288	1  	3 	-1.05  	15.036000000000001  	21.992             	0.0                 
289	1  	10	2.1    	0.258               	5.483              	6.069000000000001   
290	1  	10	2.1    	0.258               	14.315999999999999 	6.069000000000001   
291	1  	10	2.1    	0.258               	23.149             	6.069000000000001   
292	1  	10	2.1    	0.32600000000000007 	2.5169999999999995 	6.068000000000001   
293	1  	10	2.1    	0.32600000000000007 	11.35              	6.068000000000001   
294	1  	10	2.1    	0.32600000000000007 	20.183             	6.068000000000001   
295	1  	10	2.1    	1.236               	3.796              	0.6610000000000005  
296	1  	10	2.1    	1.236               	12.629             	0.6610000000000005  
297	1  	10	2.1    	1.236               	21.462             	0.6610000000000005  
298	1  	10	2.1    	1.3039999999999998  	0.8300000000000001 	0.660000000000001   
299	1  	10	2.1    	1.3039999999999998  	9.663              	0.660000000000001   
300	1  	10	2.1    	1.3039999999999998  	18.496000000000002 	0.660000000000001   
301	1  	10	2.1    	2.854               	0.976              	6.069000000000001   
302	1  	10	2.1    	2.854               	9.809000000000001  	6.069000000000001   
303	1  	10	2.1    	2.854               	18.642             	6.069000000000001   
304	1  	10	2.1    	2.9219999999999997  	7.0249999999999995 	6.068000000000001   
305	1  	10	2.1    	2.9219999999999997  	15.858             	6.068000000000001   
306	1  	10	2.1    	2.9219999999999997  	24.691             	6.068000000000001   
307	1  	10	2.1    	3.832               	8.302999999999999  	0.6610000000000005  
308	1  	10	2.1    	3.832               	17.136             	0.6610000000000005  
309	1  	10	2.1    	3.832               	25.969             	0.6610000000000005  
310	1  	10	2.1    	3.9                 	5.337              	0.660000000000001   
311	1  	10	2.1    	3.9                 	14.17              	0.660000000000001   
312	1  	10	2.1    	3.9                 	23.003             	0.660000000000001   
313	1  	10	2.1    	5.2700000000000005  	5.483              	6.069000000000001   
314	1  	10	2.1    	5.2700000000000005  	14.315999999999999 	6.069000000000001   
315	1  	10	2.1    	5.2700000000000005  	23.149             	6.069000000000001   
316	1  	10	2.1    	5.338000000000001   	2.5169999999999995 	6.068000000000001   
317	1  	10	2.1    	5.338000000000001   	11.35              	6.068000000000001   
318	1  	10	2.1    	5.338000000000001   	20.183             	6.068000000000001   
319	1  	10	2.1    	6.248               	3.796              	0.6610000000000005  
320	1  	10	2.1    	6.248               	12.629             	0.6610000000000005  
321	1  	10	2.1    	6.248               	21.462             	0.6610000000000005  
322	1  	10	2.1    	6.316000000000001   	0.8300000000000001 	0.660000000000001   
323	1  	10	2.1    	6.316000000000001   	9.663              	0.660000000000001   
324	1  	10	2.1    	6.316000000000001   	18.496000000000002 	0.660000000000001   
325	1  	10	2.1    	7.8660000000000005  	0.976              	6.069000000000001   
326	1  	10	2.1    	7.8660000000000005  	9.809000000000001  	6.069000000000001   
327	1  	10	2.1    	7.8660000000000005  	18.642             	6.069000000000001   
328	1  	10	2.1    	7.934               	7.0249999999999995 	6.068000000000001   
329	1  	10	2.1    	7.934               	15.858             	6.068000000000001   
330	1  	10	2.1    	7.934               	24.691             	6.068000000000001   
331	1  	10	2.1    	8.844000000000001   	8.302999999999999  	0.6610000000000005  
332	1  	10	2.1    	8.844000000000001   	17.136             	0.6610000000000005  
333	1  	10	2.1    	8.844000000000001   	25.969             	0.6610000000000005  
334	1  	10	2.1    	8.912               	5.337              	0.660000000000001   
335	1  	10	2.1    	8.912               	14.17              	0.660000000000001   
336	1  	10	2.1    	8.912               	23.003             	0.660000000000001   
337	1  	10	2.1    	10.282              	5.483              	6.069000000000001   
338	1  	10	2.1    	10.282              	14.315999999999999 	6.069000000000001   
339	1  	10	2.1    	10.282              	23.149             	6.069000000000001   
340	1  	10	2.1    	10.350000000000001  	2.5169999999999995 	6.068000000000001   
341	1  	10	2.1    	10.350000000000001  	11.35              	6.068000000000001   
342	1  	10	2.1    	10.350000000000001  	20.183             	6.068000000000001   
343	1  	10	2.1    	11.260000000000002  	3.796              	0.6610000000000005  
344	1  	10	2.1    	11.260000000000002  	12.629             	0.6610000000000005  
345	1  	10	2.1    	11.260000000000002  	21.462             	0.6610000000000005  
346	1  	10	2.1    	11.328000000000001  	0.8300000000000001 	0.660000000000001   
347	1  	10	2.1    	11.328000000000001  	9.663              	0.660000000000001   
348	1  	10	2.1    	11.328000000000001  	18.496000000000002 	0.660000000000001   
349	1  	10	2.1    	12.878              	0.976              	6.069000000000001   
350	1  	10	2.1    	12.878              	9.809000000000001  	6.069000000000001   
351	1  	10	2.1    	12.878              	18.642             	6.069000000000001   
352	1  	10	2.1    	12.946000000000002  	7.0249999999999995 	6.068000000000001   
353	1  	10	2.1    	12.946000000000002  	15.858             	6.068000000000001   
354	1  	10	2.1    	12.946000000000002  	24.691             	6.068000000000001   